<?xml version="1.0" encoding="UTF-8"?>

<!-- generated on 2024-03-20 08:16:55 by Eclipse SUMO libsumo Version 1.19.0
<configuration xmlns:xsi="http://www.w3.org/2001/XMLSchema-instance" xsi:noNamespaceSchemaLocation="http://sumo.dlr.de/xsd/libsumoConfiguration.xsd">

    <input>
        <net-file value="./nets/3x3/network.net.xml"/>
        <route-files value="./nets/3x3/generated_route.rou.xml"/>
    </input>

    <output>
        <queue-output value="./DDQN/runs/3x3/run_10/QueueInfo/episode_7"/>
        <summary-output value="./DDQN/runs/3x3/run_10/Summary/episode_7"/>
        <tripinfo-output value="./DDQN/runs/3x3/run_10/VehicleInfo/episode_7"/>
    </output>

    <processing>
        <waiting-time-memory value="10000"/>
    </processing>

    <report>
        <no-warnings value="true"/>
        <log value="./nets/3x3/sumo_log.txt"/>
        <no-step-log value="true"/>
    </report>

    <emissions>
        <phemlight-path value="./nets/3x3/./PHEMlight/"/>
    </emissions>

    <random_number>
        <random value="true"/>
    </random_number>

</configuration>
-->

<tripinfos xmlns:xsi="http://www.w3.org/2001/XMLSchema-instance" xsi:noNamespaceSchemaLocation="http://sumo.dlr.de/xsd/tripinfo_file.xsd">
    <tripinfo id="2" depart="29.00" departLane="eastBottom___intersectionSE_0" departPos="5.10" departSpeed="0.00" departDelay="0.00" arrival="84.00" arrivalLane="intersectionSE___southRight_0" arrivalPos="292.00" arrivalSpeed="11.23" duration="55.00" routeLength="593.09" waitingTime="0.00" waitingCount="0" stopTime="0.00" timeLoss="6.95" rerouteNo="0" devices="tripinfo_2" vType="type1" speedFactor="0.90" vaporized=""/>
    <tripinfo id="7" depart="81.00" departLane="intersectionSW___intersectionS_0" departPos="5.10" departSpeed="0.00" departDelay="0.00" arrival="104.00" arrivalLane="intersectionSW___intersectionS_0" arrivalPos="292.00" arrivalSpeed="13.28" duration="23.00" routeLength="286.90" waitingTime="0.00" waitingCount="0" stopTime="0.00" timeLoss="3.39" rerouteNo="0" devices="tripinfo_7" vType="type1" speedFactor="1.06" vaporized=""/>
    <tripinfo id="5" depart="62.00" departLane="intersectionE___intersectionSE_0" departPos="5.10" departSpeed="0.00" departDelay="0.00" arrival="134.00" arrivalLane="intersectionS___intersectionCenter_0" arrivalPos="292.00" arrivalSpeed="12.42" duration="72.00" routeLength="888.96" waitingTime="0.00" waitingCount="0" stopTime="0.00" timeLoss="8.18" rerouteNo="0" devices="tripinfo_5" vType="type1" speedFactor="1.01" vaporized=""/>
    <tripinfo id="4" depart="60.00" departLane="intersectionNW___intersectionW_0" departPos="5.10" departSpeed="0.00" departDelay="0.00" arrival="151.00" arrivalLane="intersectionSW___westBottom_0" arrivalPos="292.00" arrivalSpeed="13.05" duration="91.00" routeLength="894.33" waitingTime="15.00" waitingCount="1" stopTime="0.00" timeLoss="26.56" rerouteNo="0" devices="tripinfo_4" vType="type1" speedFactor="1.00" vaporized=""/>
    <tripinfo id="3" depart="42.00" departLane="intersectionN___intersectionNW_0" departPos="5.10" departSpeed="0.00" departDelay="0.00" arrival="153.00" arrivalLane="intersectionSW___westBottom_0" arrivalPos="292.00" arrivalSpeed="13.53" duration="111.00" routeLength="1200.52" waitingTime="13.00" waitingCount="1" stopTime="0.00" timeLoss="31.14" rerouteNo="0" devices="tripinfo_3" vType="type1" speedFactor="1.09" vaporized=""/>
    <tripinfo id="13" depart="102.00" departLane="northMiddle___intersectionN_0" departPos="5.10" departSpeed="0.00" departDelay="0.00" arrival="154.00" arrivalLane="intersectionN___intersectionCenter_0" arrivalPos="292.00" arrivalSpeed="12.35" duration="52.00" routeLength="593.30" waitingTime="0.00" waitingCount="0" stopTime="0.00" timeLoss="5.66" rerouteNo="0" devices="tripinfo_13" vType="type1" speedFactor="0.93" vaporized=""/>
    <tripinfo id="14" depart="107.00" departLane="intersectionCenter___intersectionE_0" departPos="5.10" departSpeed="0.00" departDelay="0.00" arrival="157.00" arrivalLane="intersectionE___intersectionSE_0" arrivalPos="292.00" arrivalSpeed="13.38" duration="50.00" routeLength="587.93" waitingTime="1.00" waitingCount="1" stopTime="0.00" timeLoss="10.03" rerouteNo="0" devices="tripinfo_14" vType="type1" speedFactor="1.06" vaporized=""/>
    <tripinfo id="0" depart="7.00" departLane="northMiddle___intersectionN_0" departPos="5.10" departSpeed="0.00" departDelay="0.00" arrival="164.00" arrivalLane="intersectionS___intersectionSE_0" arrivalPos="292.00" arrivalSpeed="7.18" duration="157.00" routeLength="1205.89" waitingTime="54.00" waitingCount="2" stopTime="0.00" timeLoss="70.49" rerouteNo="0" devices="tripinfo_0" vType="type1" speedFactor="1.00" vaporized=""/>
    <tripinfo id="9" depart="90.00" departLane="northMiddle___intersectionN_0" departPos="5.10" departSpeed="0.00" departDelay="0.00" arrival="167.00" arrivalLane="intersectionNE___intersectionE_0" arrivalPos="292.00" arrivalSpeed="16.29" duration="77.00" routeLength="894.12" waitingTime="11.00" waitingCount="2" stopTime="0.00" timeLoss="25.75" rerouteNo="0" devices="tripinfo_9" vType="type1" speedFactor="1.28" vaporized=""/>
    <tripinfo id="20" depart="126.00" departLane="intersectionS___intersectionSW_0" departPos="5.10" departSpeed="0.00" departDelay="0.00" arrival="181.00" arrivalLane="intersectionSW___intersectionW_0" arrivalPos="292.00" arrivalSpeed="10.55" duration="55.00" routeLength="587.93" waitingTime="0.00" waitingCount="0" stopTime="0.00" timeLoss="6.66" rerouteNo="0" devices="tripinfo_20" vType="type1" speedFactor="0.89" vaporized=""/>
    <tripinfo id="1" depart="17.00" departLane="intersectionSE___intersectionE_0" departPos="5.10" departSpeed="0.00" departDelay="0.00" arrival="186.00" arrivalLane="intersectionNE___intersectionE_0" arrivalPos="292.00" arrivalSpeed="13.66" duration="169.00" routeLength="1496.18" waitingTime="41.00" waitingCount="3" stopTime="0.00" timeLoss="62.50" rerouteNo="0" devices="tripinfo_1" vType="type1" speedFactor="1.02" vaporized=""/>
    <tripinfo id="40" depart="168.00" departLane="intersectionW___intersectionCenter_0" departPos="5.10" departSpeed="0.00" departDelay="0.00" arrival="194.00" arrivalLane="intersectionW___intersectionCenter_0" arrivalPos="292.00" arrivalSpeed="12.61" duration="26.00" routeLength="286.90" waitingTime="0.00" waitingCount="0" stopTime="0.00" timeLoss="3.85" rerouteNo="0" devices="tripinfo_40" vType="type1" speedFactor="0.97" vaporized=""/>
    <tripinfo id="12" depart="98.00" departLane="intersectionCenter___intersectionE_0" departPos="7.10" departSpeed="0.00" departDelay="0.00" arrival="201.00" arrivalLane="intersectionS___intersectionCenter_0" arrivalPos="292.00" arrivalSpeed="11.84" duration="103.00" routeLength="1187.99" waitingTime="2.00" waitingCount="2" stopTime="0.00" timeLoss="17.47" rerouteNo="0" devices="tripinfo_12" vType="type2" speedFactor="1.00" vaporized=""/>
    <tripinfo id="8" depart="88.00" departLane="intersectionCenter___intersectionW_0" departPos="5.10" departSpeed="0.00" departDelay="0.00" arrival="207.00" arrivalLane="intersectionN___northMiddle_0" arrivalPos="292.00" arrivalSpeed="11.63" duration="119.00" routeLength="1195.15" waitingTime="3.00" waitingCount="2" stopTime="0.00" timeLoss="21.15" rerouteNo="0" devices="tripinfo_8" vType="type1" speedFactor="0.89" vaporized=""/>
    <tripinfo id="28" depart="148.00" departLane="intersectionSE___intersectionE_0" departPos="5.10" departSpeed="0.00" departDelay="0.00" arrival="208.00" arrivalLane="intersectionE___eastMiddle_0" arrivalPos="292.00" arrivalSpeed="12.36" duration="60.00" routeLength="587.93" waitingTime="9.00" waitingCount="1" stopTime="0.00" timeLoss="18.77" rerouteNo="0" devices="tripinfo_28" vType="type1" speedFactor="1.03" vaporized=""/>
    <tripinfo id="17" depart="115.00" departLane="intersectionE___intersectionCenter_0" departPos="7.10" departSpeed="0.00" departDelay="0.00" arrival="221.00" arrivalLane="intersectionSE___southRight_0" arrivalPos="292.00" arrivalSpeed="11.39" duration="106.00" routeLength="1198.31" waitingTime="2.00" waitingCount="1" stopTime="0.00" timeLoss="19.50" rerouteNo="0" devices="tripinfo_17" vType="type2" speedFactor="1.00" vaporized=""/>
    <tripinfo id="11" depart="94.00" departLane="southLeft___intersectionSW_0" departPos="5.10" departSpeed="0.00" departDelay="0.00" arrival="225.00" arrivalLane="intersectionNW___intersectionN_0" arrivalPos="292.00" arrivalSpeed="9.43" duration="131.00" routeLength="1200.73" waitingTime="16.00" waitingCount="3" stopTime="0.00" timeLoss="37.52" rerouteNo="0" devices="tripinfo_11" vType="type1" speedFactor="0.93" vaporized=""/>
    <tripinfo id="24" depart="134.00" departLane="intersectionS___intersectionCenter_0" departPos="5.10" departSpeed="0.00" departDelay="2.00" arrival="227.00" arrivalLane="intersectionCenter___intersectionW_0" arrivalPos="292.00" arrivalSpeed="9.49" duration="93.00" routeLength="593.09" waitingTime="23.00" waitingCount="2" stopTime="0.00" timeLoss="41.93" rerouteNo="0" devices="tripinfo_24" vType="type1" speedFactor="0.84" vaporized=""/>
    <tripinfo id="29" depart="149.00" departLane="intersectionE___intersectionCenter_0" departPos="5.10" departSpeed="0.00" departDelay="0.00" arrival="227.00" arrivalLane="intersectionS___southMiddle_0" arrivalPos="292.00" arrivalSpeed="12.49" duration="78.00" routeLength="899.49" waitingTime="0.00" waitingCount="0" stopTime="0.00" timeLoss="8.39" rerouteNo="0" devices="tripinfo_29" vType="type1" speedFactor="0.94" vaporized=""/>
    <tripinfo id="23" depart="132.00" departLane="intersectionS___intersectionCenter_0" departPos="5.10" departSpeed="0.00" departDelay="0.00" arrival="228.00" arrivalLane="intersectionNE___intersectionN_0" arrivalPos="292.00" arrivalSpeed="14.53" duration="96.00" routeLength="1200.31" waitingTime="1.00" waitingCount="1" stopTime="0.00" timeLoss="15.39" rerouteNo="0" devices="tripinfo_23" vType="type1" speedFactor="1.07" vaporized=""/>
    <tripinfo id="42" depart="174.00" departLane="northMiddle___intersectionN_0" departPos="5.10" departSpeed="0.00" departDelay="0.00" arrival="231.00" arrivalLane="intersectionN___intersectionNW_0" arrivalPos="292.00" arrivalSpeed="11.88" duration="57.00" routeLength="587.93" waitingTime="0.00" waitingCount="0" stopTime="0.00" timeLoss="8.85" rerouteNo="0" devices="tripinfo_42" vType="type1" speedFactor="0.88" vaporized=""/>
    <tripinfo id="39" depart="167.00" departLane="westTop___intersectionNW_0" departPos="5.10" departSpeed="0.00" departDelay="2.00" arrival="233.00" arrivalLane="intersectionW___intersectionCenter_0" arrivalPos="292.00" arrivalSpeed="14.71" duration="66.00" routeLength="894.12" waitingTime="0.00" waitingCount="0" stopTime="0.00" timeLoss="9.72" rerouteNo="0" devices="tripinfo_39" vType="type1" speedFactor="1.15" vaporized=""/>
    <tripinfo id="44" depart="182.00" departLane="intersectionN___intersectionCenter_0" departPos="5.10" departSpeed="0.00" departDelay="0.00" arrival="233.00" arrivalLane="intersectionCenter___intersectionW_0" arrivalPos="292.00" arrivalSpeed="17.63" duration="51.00" routeLength="587.93" waitingTime="4.00" waitingCount="1" stopTime="0.00" timeLoss="17.46" rerouteNo="0" devices="tripinfo_44" vType="type1" speedFactor="1.29" vaporized=""/>
    <tripinfo id="25" depart="140.00" departLane="southMiddle___intersectionS_0" departPos="5.10" departSpeed="0.00" departDelay="0.00" arrival="235.00" arrivalLane="intersectionN___intersectionNW_0" arrivalPos="292.00" arrivalSpeed="11.86" duration="95.00" routeLength="1205.89" waitingTime="0.00" waitingCount="0" stopTime="0.00" timeLoss="21.03" rerouteNo="0" devices="tripinfo_25" vType="type1" speedFactor="1.18" vaporized=""/>
    <tripinfo id="27" depart="144.00" departLane="intersectionNE___intersectionN_0" departPos="5.10" departSpeed="0.00" departDelay="0.00" arrival="238.00" arrivalLane="intersectionE___intersectionSE_0" arrivalPos="292.00" arrivalSpeed="9.88" duration="94.00" routeLength="1200.31" waitingTime="0.00" waitingCount="0" stopTime="0.00" timeLoss="21.14" rerouteNo="0" devices="tripinfo_27" vType="type1" speedFactor="1.19" vaporized=""/>
    <tripinfo id="30" depart="149.00" departLane="intersectionW___intersectionNW_0" departPos="5.10" departSpeed="0.00" departDelay="0.00" arrival="240.00" arrivalLane="intersectionCenter___intersectionE_0" arrivalPos="292.00" arrivalSpeed="13.87" duration="91.00" routeLength="1195.15" waitingTime="0.00" waitingCount="0" stopTime="0.00" timeLoss="9.57" rerouteNo="0" devices="tripinfo_30" vType="type1" speedFactor="1.06" vaporized=""/>
    <tripinfo id="15" depart="107.00" departLane="intersectionS___intersectionSE_0" departPos="5.10" departSpeed="0.00" departDelay="0.00" arrival="244.00" arrivalLane="intersectionNE___intersectionN_0" arrivalPos="292.00" arrivalSpeed="11.46" duration="137.00" routeLength="1205.68" waitingTime="26.00" waitingCount="1" stopTime="0.00" timeLoss="39.99" rerouteNo="0" devices="tripinfo_15" vType="type1" speedFactor="0.90" vaporized=""/>
    <tripinfo id="21" depart="129.00" departLane="northMiddle___intersectionN_0" departPos="7.10" departSpeed="0.00" departDelay="0.00" arrival="248.00" arrivalLane="intersectionW___westMiddle_0" arrivalPos="292.00" arrivalSpeed="12.31" duration="119.00" routeLength="1198.73" waitingTime="14.00" waitingCount="2" stopTime="0.00" timeLoss="31.92" rerouteNo="0" devices="tripinfo_21" vType="type2" speedFactor="1.00" vaporized=""/>
    <tripinfo id="18" depart="119.00" departLane="intersectionNW___intersectionN_0" departPos="5.10" departSpeed="0.00" departDelay="0.00" arrival="253.00" arrivalLane="intersectionW___intersectionNW_0" arrivalPos="292.00" arrivalSpeed="11.49" duration="134.00" routeLength="1189.99" waitingTime="16.00" waitingCount="2" stopTime="0.00" timeLoss="33.77" rerouteNo="0" devices="tripinfo_18" vType="type1" speedFactor="0.86" vaporized=""/>
    <tripinfo id="19" depart="121.00" departLane="southRight___intersectionSE_0" departPos="7.10" departSpeed="0.00" departDelay="0.00" arrival="256.00" arrivalLane="intersectionN___intersectionNW_0" arrivalPos="292.00" arrivalSpeed="13.32" duration="135.00" routeLength="1510.29" waitingTime="11.00" waitingCount="1" stopTime="0.00" timeLoss="25.58" rerouteNo="0" devices="tripinfo_19" vType="type2" speedFactor="1.00" vaporized=""/>
    <tripinfo id="38" depart="165.00" departLane="westTop___intersectionNW_0" departPos="5.10" departSpeed="0.00" departDelay="0.00" arrival="270.00" arrivalLane="intersectionNE___eastTop_0" arrivalPos="292.00" arrivalSpeed="12.78" duration="105.00" routeLength="1206.10" waitingTime="7.00" waitingCount="1" stopTime="0.00" timeLoss="19.69" rerouteNo="0" devices="tripinfo_38" vType="type1" speedFactor="1.02" vaporized=""/>
    <tripinfo id="49" depart="195.00" departLane="intersectionNW___intersectionN_0" departPos="7.10" departSpeed="0.00" departDelay="2.00" arrival="275.00" arrivalLane="intersectionNE___intersectionE_0" arrivalPos="292.00" arrivalSpeed="12.02" duration="80.00" routeLength="892.33" waitingTime="1.00" waitingCount="1" stopTime="0.00" timeLoss="15.54" rerouteNo="0" devices="tripinfo_49" vType="type2" speedFactor="1.00" vaporized=""/>
    <tripinfo id="22" depart="130.00" departLane="eastMiddle___intersectionE_0" departPos="7.10" departSpeed="0.00" departDelay="0.00" arrival="276.00" arrivalLane="intersectionNW___intersectionW_0" arrivalPos="292.00" arrivalSpeed="13.72" duration="146.00" routeLength="1504.71" waitingTime="20.00" waitingCount="1" stopTime="0.00" timeLoss="36.74" rerouteNo="0" devices="tripinfo_22" vType="type2" speedFactor="1.00" vaporized=""/>
    <tripinfo id="54" depart="199.00" departLane="intersectionSE___intersectionE_0" departPos="5.10" departSpeed="0.00" departDelay="0.00" arrival="276.00" arrivalLane="intersectionE___intersectionCenter_0" arrivalPos="292.00" arrivalSpeed="14.33" duration="77.00" routeLength="593.09" waitingTime="26.00" waitingCount="2" stopTime="0.00" timeLoss="40.30" rerouteNo="0" devices="tripinfo_54" vType="type1" speedFactor="1.18" vaporized=""/>
    <tripinfo id="6" depart="77.00" departLane="intersectionW___intersectionSW_0" departPos="5.10" departSpeed="0.00" departDelay="0.00" arrival="284.00" arrivalLane="intersectionNW___northLeft_0" arrivalPos="292.00" arrivalSpeed="14.79" duration="207.00" routeLength="1812.90" waitingTime="42.00" waitingCount="4" stopTime="0.00" timeLoss="88.60" rerouteNo="0" devices="tripinfo_6" vType="type1" speedFactor="1.10" vaporized=""/>
    <tripinfo id="35" depart="159.00" departLane="intersectionCenter___intersectionN_0" departPos="5.10" departSpeed="0.00" departDelay="0.00" arrival="285.00" arrivalLane="intersectionW___westMiddle_0" arrivalPos="292.00" arrivalSpeed="15.81" duration="126.00" routeLength="1200.31" waitingTime="20.00" waitingCount="1" stopTime="0.00" timeLoss="55.82" rerouteNo="0" devices="tripinfo_35" vType="type1" speedFactor="1.23" vaporized=""/>
    <tripinfo id="10" depart="92.00" departLane="northMiddle___intersectionN_0" departPos="5.10" departSpeed="0.00" departDelay="2.00" arrival="287.00" arrivalLane="intersectionSW___intersectionS_0" arrivalPos="292.00" arrivalSpeed="6.20" duration="195.00" routeLength="1506.71" waitingTime="61.00" waitingCount="2" stopTime="0.00" timeLoss="82.64" rerouteNo="0" devices="tripinfo_10" vType="type1" speedFactor="0.97" vaporized=""/>
    <tripinfo id="26" depart="141.00" departLane="intersectionCenter___intersectionN_0" departPos="5.10" departSpeed="0.00" departDelay="0.00" arrival="288.00" arrivalLane="intersectionSE___southRight_0" arrivalPos="292.00" arrivalSpeed="13.48" duration="147.00" routeLength="1501.76" waitingTime="27.00" waitingCount="2" stopTime="0.00" timeLoss="45.81" rerouteNo="0" devices="tripinfo_26" vType="type1" speedFactor="1.07" vaporized=""/>
    <tripinfo id="32" depart="156.00" departLane="intersectionNE___intersectionN_0" departPos="5.10" departSpeed="0.00" departDelay="0.00" arrival="288.00" arrivalLane="intersectionW___intersectionCenter_0" arrivalPos="292.00" arrivalSpeed="7.32" duration="132.00" routeLength="1205.68" waitingTime="7.00" waitingCount="1" stopTime="0.00" timeLoss="37.43" rerouteNo="0" devices="tripinfo_32" vType="type1" speedFactor="0.92" vaporized=""/>
    <tripinfo id="41" depart="171.00" departLane="intersectionN___intersectionNW_0" departPos="5.10" departSpeed="0.00" departDelay="0.00" arrival="313.00" arrivalLane="intersectionS___intersectionSE_0" arrivalPos="292.00" arrivalSpeed="14.67" duration="142.00" routeLength="1512.08" waitingTime="25.00" waitingCount="1" stopTime="0.00" timeLoss="42.53" rerouteNo="0" devices="tripinfo_41" vType="type1" speedFactor="1.10" vaporized=""/>
    <tripinfo id="36" depart="159.00" departLane="eastMiddle___intersectionE_0" departPos="7.10" departSpeed="0.00" departDelay="0.00" arrival="314.00" arrivalLane="intersectionNW___westTop_0" arrivalPos="292.00" arrivalSpeed="12.61" duration="155.00" routeLength="1504.92" waitingTime="28.00" waitingCount="2" stopTime="0.00" timeLoss="45.92" rerouteNo="0" devices="tripinfo_36" vType="type2" speedFactor="1.00" vaporized=""/>
    <tripinfo id="56" depart="208.00" departLane="northMiddle___intersectionN_0" departPos="5.10" departSpeed="0.00" departDelay="0.00" arrival="315.00" arrivalLane="intersectionNE___northRight_0" arrivalPos="292.00" arrivalSpeed="11.25" duration="107.00" routeLength="899.28" waitingTime="27.00" waitingCount="1" stopTime="0.00" timeLoss="38.59" rerouteNo="0" devices="tripinfo_56" vType="type1" speedFactor="0.95" vaporized=""/>
    <tripinfo id="33" depart="157.00" departLane="intersectionS___intersectionSE_0" departPos="5.10" departSpeed="0.00" departDelay="0.00" arrival="324.00" arrivalLane="intersectionNE___northRight_0" arrivalPos="292.00" arrivalSpeed="14.48" duration="167.00" routeLength="1205.89" waitingTime="79.00" waitingCount="1" stopTime="0.00" timeLoss="90.49" rerouteNo="0" devices="tripinfo_33" vType="type1" speedFactor="1.14" vaporized=""/>
    <tripinfo id="96" depart="276.00" departLane="eastMiddle___intersectionE_0" departPos="5.10" departSpeed="0.00" departDelay="0.00" arrival="329.00" arrivalLane="intersectionE___intersectionNE_0" arrivalPos="292.00" arrivalSpeed="15.19" duration="53.00" routeLength="587.93" waitingTime="4.00" waitingCount="1" stopTime="0.00" timeLoss="14.05" rerouteNo="0" devices="tripinfo_96" vType="type1" speedFactor="1.10" vaporized=""/>
    <tripinfo id="59" depart="214.00" departLane="intersectionS___intersectionCenter_0" departPos="5.10" departSpeed="0.00" departDelay="0.00" arrival="332.00" arrivalLane="intersectionNE___northRight_0" arrivalPos="292.00" arrivalSpeed="11.58" duration="118.00" routeLength="1200.52" waitingTime="12.00" waitingCount="2" stopTime="0.00" timeLoss="29.26" rerouteNo="0" devices="tripinfo_59" vType="type1" speedFactor="0.98" vaporized=""/>
    <tripinfo id="92" depart="269.00" departLane="westMiddle___intersectionW_0" departPos="5.10" departSpeed="0.00" departDelay="0.00" arrival="338.00" arrivalLane="intersectionNW___westTop_0" arrivalPos="292.00" arrivalSpeed="12.98" duration="69.00" routeLength="899.28" waitingTime="0.00" waitingCount="0" stopTime="0.00" timeLoss="8.28" rerouteNo="0" devices="tripinfo_92" vType="type1" speedFactor="1.07" vaporized=""/>
    <tripinfo id="68" depart="232.00" departLane="intersectionCenter___intersectionW_0" departPos="5.10" departSpeed="0.00" departDelay="0.00" arrival="344.00" arrivalLane="intersectionW___intersectionSW_0" arrivalPos="292.00" arrivalSpeed="7.03" duration="112.00" routeLength="593.09" waitingTime="52.00" waitingCount="3" stopTime="0.00" timeLoss="67.97" rerouteNo="0" devices="tripinfo_68" vType="type1" speedFactor="0.97" vaporized=""/>
    <tripinfo id="76" depart="247.00" departLane="intersectionCenter___intersectionE_0" departPos="5.10" departSpeed="0.00" departDelay="0.00" arrival="345.00" arrivalLane="intersectionSE___southRight_0" arrivalPos="292.00" arrivalSpeed="13.57" duration="98.00" routeLength="894.33" waitingTime="28.00" waitingCount="1" stopTime="0.00" timeLoss="38.13" rerouteNo="0" devices="tripinfo_76" vType="type1" speedFactor="1.09" vaporized=""/>
    <tripinfo id="80" depart="249.00" departLane="intersectionCenter___intersectionE_0" departPos="5.10" departSpeed="0.00" departDelay="1.00" arrival="345.00" arrivalLane="intersectionSE___intersectionS_0" arrivalPos="292.00" arrivalSpeed="13.88" duration="96.00" routeLength="888.96" waitingTime="28.00" waitingCount="1" stopTime="0.00" timeLoss="40.61" rerouteNo="0" devices="tripinfo_80" vType="type1" speedFactor="1.16" vaporized=""/>
    <tripinfo id="34" depart="158.00" departLane="intersectionNW___intersectionW_0" departPos="5.10" departSpeed="0.00" departDelay="0.00" arrival="349.00" arrivalLane="intersectionNW___northLeft_0" arrivalPos="292.00" arrivalSpeed="12.30" duration="191.00" routeLength="1506.50" waitingTime="53.00" waitingCount="3" stopTime="0.00" timeLoss="82.05" rerouteNo="0" devices="tripinfo_34" vType="type1" speedFactor="1.00" vaporized=""/>
    <tripinfo id="52" depart="196.00" departLane="southMiddle___intersectionS_0" departPos="5.10" departSpeed="0.00" departDelay="0.00" arrival="349.00" arrivalLane="intersectionSE___intersectionS_0" arrivalPos="292.00" arrivalSpeed="13.15" duration="153.00" routeLength="1496.39" waitingTime="29.00" waitingCount="3" stopTime="0.00" timeLoss="51.00" rerouteNo="0" devices="tripinfo_52" vType="type1" speedFactor="1.06" vaporized=""/>
    <tripinfo id="86" depart="259.00" departLane="northMiddle___intersectionN_0" departPos="5.10" departSpeed="0.00" departDelay="0.00" arrival="360.00" arrivalLane="intersectionN___intersectionCenter_0" arrivalPos="292.00" arrivalSpeed="14.10" duration="101.00" routeLength="593.30" waitingTime="41.00" waitingCount="2" stopTime="0.00" timeLoss="62.50" rerouteNo="0" devices="tripinfo_86" vType="type1" speedFactor="1.11" vaporized=""/>
    <tripinfo id="75" depart="246.00" departLane="intersectionS___intersectionSE_0" departPos="5.10" departSpeed="0.00" departDelay="0.00" arrival="363.00" arrivalLane="intersectionCenter___intersectionW_0" arrivalPos="292.00" arrivalSpeed="12.32" duration="117.00" routeLength="1205.68" waitingTime="10.00" waitingCount="1" stopTime="0.00" timeLoss="28.57" rerouteNo="0" devices="tripinfo_75" vType="type1" speedFactor="0.99" vaporized=""/>
    <tripinfo id="16" depart="108.00" departLane="westMiddle___intersectionW_0" departPos="5.10" departSpeed="0.00" departDelay="0.00" arrival="364.00" arrivalLane="intersectionSE___intersectionE_0" arrivalPos="292.00" arrivalSpeed="7.94" duration="256.00" routeLength="1506.71" waitingTime="129.00" waitingCount="4" stopTime="0.00" timeLoss="170.77" rerouteNo="0" devices="tripinfo_16" vType="type1" speedFactor="1.27" vaporized=""/>
    <tripinfo id="128" depart="306.00" departLane="intersectionSW___intersectionW_0" departPos="5.10" departSpeed="0.00" departDelay="0.00" arrival="364.00" arrivalLane="intersectionW___intersectionNW_0" arrivalPos="292.00" arrivalSpeed="13.82" duration="58.00" routeLength="593.30" waitingTime="12.00" waitingCount="1" stopTime="0.00" timeLoss="20.58" rerouteNo="0" devices="tripinfo_128" vType="type1" speedFactor="1.15" vaporized=""/>
    <tripinfo id="63" depart="222.00" departLane="intersectionN___intersectionNW_0" departPos="5.10" departSpeed="0.00" departDelay="0.00" arrival="367.00" arrivalLane="intersectionCenter___intersectionS_0" arrivalPos="292.00" arrivalSpeed="12.55" duration="145.00" routeLength="1200.31" waitingTime="29.00" waitingCount="1" stopTime="0.00" timeLoss="59.86" rerouteNo="0" devices="tripinfo_63" vType="type1" speedFactor="1.02" vaporized=""/>
    <tripinfo id="107" depart="284.00" departLane="intersectionCenter___intersectionS_0" departPos="5.10" departSpeed="0.00" departDelay="0.00" arrival="367.00" arrivalLane="intersectionSE___eastBottom_0" arrivalPos="292.00" arrivalSpeed="13.33" duration="83.00" routeLength="899.49" waitingTime="5.00" waitingCount="1" stopTime="0.00" timeLoss="22.19" rerouteNo="0" devices="tripinfo_107" vType="type1" speedFactor="1.07" vaporized=""/>
    <tripinfo id="55" depart="200.00" departLane="intersectionNW___intersectionW_0" departPos="5.10" departSpeed="0.00" departDelay="0.00" arrival="369.00" arrivalLane="intersectionNE___northRight_0" arrivalPos="292.00" arrivalSpeed="14.05" duration="169.00" routeLength="1512.08" waitingTime="47.00" waitingCount="2" stopTime="0.00" timeLoss="65.69" rerouteNo="0" devices="tripinfo_55" vType="type1" speedFactor="1.06" vaporized=""/>
    <tripinfo id="120" depart="297.00" departLane="intersectionS___intersectionSW_0" departPos="7.10" departSpeed="0.00" departDelay="0.00" arrival="373.00" arrivalLane="intersectionW___westMiddle_0" arrivalPos="292.00" arrivalSpeed="13.25" duration="76.00" routeLength="892.12" waitingTime="0.00" waitingCount="0" stopTime="0.00" timeLoss="10.97" rerouteNo="0" devices="tripinfo_120" vType="type2" speedFactor="1.00" vaporized=""/>
    <tripinfo id="103" depart="282.00" departLane="intersectionSE___intersectionE_0" departPos="5.10" departSpeed="0.00" departDelay="0.00" arrival="376.00" arrivalLane="intersectionCenter___intersectionS_0" arrivalPos="292.00" arrivalSpeed="13.40" duration="94.00" routeLength="899.28" waitingTime="22.00" waitingCount="1" stopTime="0.00" timeLoss="35.07" rerouteNo="0" devices="tripinfo_103" vType="type1" speedFactor="1.11" vaporized=""/>
    <tripinfo id="117" depart="295.00" departLane="intersectionSW___intersectionS_0" departPos="5.10" departSpeed="0.00" departDelay="0.00" arrival="377.00" arrivalLane="intersectionSE___southRight_0" arrivalPos="292.00" arrivalSpeed="14.64" duration="82.00" routeLength="894.33" waitingTime="1.00" waitingCount="1" stopTime="0.00" timeLoss="21.27" rerouteNo="0" devices="tripinfo_117" vType="type1" speedFactor="1.07" vaporized=""/>
    <tripinfo id="43" depart="181.00" departLane="intersectionN___intersectionNW_0" departPos="5.10" departSpeed="0.00" departDelay="0.00" arrival="386.00" arrivalLane="intersectionSW___intersectionW_0" arrivalPos="292.00" arrivalSpeed="7.74" duration="205.00" routeLength="1802.37" waitingTime="9.00" waitingCount="3" stopTime="0.00" timeLoss="40.80" rerouteNo="0" devices="tripinfo_43" vType="type1" speedFactor="0.79" vaporized=""/>
    <tripinfo id="71" depart="238.00" departLane="intersectionSE___intersectionE_0" departPos="5.10" departSpeed="0.00" departDelay="0.00" arrival="388.00" arrivalLane="intersectionN___intersectionCenter_0" arrivalPos="292.00" arrivalSpeed="11.59" duration="150.00" routeLength="1205.68" waitingTime="35.00" waitingCount="3" stopTime="0.00" timeLoss="58.87" rerouteNo="0" devices="tripinfo_71" vType="type1" speedFactor="0.95" vaporized=""/>
    <tripinfo id="82" depart="252.00" departLane="southRight___intersectionSE_0" departPos="5.10" departSpeed="0.00" departDelay="1.00" arrival="392.00" arrivalLane="intersectionN___intersectionCenter_0" arrivalPos="292.00" arrivalSpeed="11.44" duration="140.00" routeLength="1512.08" waitingTime="9.00" waitingCount="1" stopTime="0.00" timeLoss="27.82" rerouteNo="0" devices="tripinfo_82" vType="type1" speedFactor="0.97" vaporized=""/>
    <tripinfo id="87" depart="259.00" departLane="intersectionE___intersectionSE_0" departPos="5.10" departSpeed="0.00" departDelay="0.00" arrival="394.00" arrivalLane="intersectionSW___intersectionW_0" arrivalPos="292.00" arrivalSpeed="11.97" duration="135.00" routeLength="1195.36" waitingTime="9.00" waitingCount="2" stopTime="0.00" timeLoss="43.95" rerouteNo="0" devices="tripinfo_87" vType="type1" speedFactor="0.95" vaporized=""/>
    <tripinfo id="64" depart="222.00" departLane="eastMiddle___intersectionE_0" departPos="5.10" departSpeed="0.00" departDelay="0.00" arrival="395.00" arrivalLane="intersectionSW___westBottom_0" arrivalPos="292.00" arrivalSpeed="11.74" duration="173.00" routeLength="1506.92" waitingTime="14.00" waitingCount="2" stopTime="0.00" timeLoss="52.96" rerouteNo="0" devices="tripinfo_64" vType="type1" speedFactor="0.91" vaporized=""/>