<?xml version="1.0" encoding="UTF-8"?>

<!-- generated on 2024-03-20 08:15:49 by Eclipse SUMO libsumo Version 1.19.0
<configuration xmlns:xsi="http://www.w3.org/2001/XMLSchema-instance" xsi:noNamespaceSchemaLocation="http://sumo.dlr.de/xsd/libsumoConfiguration.xsd">

    <input>
        <net-file value="./nets/3x3/network.net.xml"/>
        <route-files value="./nets/3x3/generated_route.rou.xml"/>
    </input>

    <output>
        <queue-output value="./DDQN/runs/3x3/run_10/QueueInfo/episode_6"/>
        <summary-output value="./DDQN/runs/3x3/run_10/Summary/episode_6"/>
        <tripinfo-output value="./DDQN/runs/3x3/run_10/VehicleInfo/episode_6"/>
    </output>

    <processing>
        <waiting-time-memory value="10000"/>
    </processing>

    <report>
        <no-warnings value="true"/>
        <log value="./nets/3x3/sumo_log.txt"/>
        <no-step-log value="true"/>
    </report>

    <emissions>
        <phemlight-path value="./nets/3x3/./PHEMlight/"/>
    </emissions>

    <random_number>
        <random value="true"/>
    </random_number>

</configuration>
-->

<tripinfos xmlns:xsi="http://www.w3.org/2001/XMLSchema-instance" xsi:noNamespaceSchemaLocation="http://sumo.dlr.de/xsd/tripinfo_file.xsd">
    <tripinfo id="5" depart="49.00" departLane="southRight___intersectionSE_0" departPos="5.10" departSpeed="0.00" departDelay="0.00" arrival="132.00" arrivalLane="intersectionE___eastMiddle_0" arrivalPos="292.00" arrivalSpeed="11.51" duration="83.00" routeLength="894.33" waitingTime="7.00" waitingCount="1" stopTime="0.00" timeLoss="17.13" rerouteNo="0" devices="tripinfo_5" vType="type1" speedFactor="0.98" vaporized=""/>
    <tripinfo id="22" depart="134.00" departLane="intersectionCenter___intersectionS_0" departPos="5.10" departSpeed="0.00" departDelay="0.00" arrival="159.00" arrivalLane="intersectionCenter___intersectionS_0" arrivalPos="292.00" arrivalSpeed="13.64" duration="25.00" routeLength="286.90" waitingTime="0.00" waitingCount="0" stopTime="0.00" timeLoss="3.24" rerouteNo="0" devices="tripinfo_22" vType="type1" speedFactor="0.99" vaporized=""/>
    <tripinfo id="1" depart="40.00" departLane="northMiddle___intersectionN_0" departPos="5.10" departSpeed="0.00" departDelay="0.00" arrival="160.00" arrivalLane="intersectionW___intersectionNW_0" arrivalPos="292.00" arrivalSpeed="9.69" duration="120.00" routeLength="1195.36" waitingTime="2.00" waitingCount="2" stopTime="0.00" timeLoss="19.99" rerouteNo="0" devices="tripinfo_1" vType="type1" speedFactor="0.86" vaporized=""/>
    <tripinfo id="3" depart="43.00" departLane="eastMiddle___intersectionE_0" departPos="5.10" departSpeed="0.00" departDelay="0.00" arrival="167.00" arrivalLane="intersectionN___intersectionCenter_0" arrivalPos="292.00" arrivalSpeed="12.04" duration="124.00" routeLength="1200.31" waitingTime="18.00" waitingCount="2" stopTime="0.00" timeLoss="34.77" rerouteNo="0" devices="tripinfo_3" vType="type1" speedFactor="0.97" vaporized=""/>
    <tripinfo id="4" depart="49.00" departLane="westBottom___intersectionSW_0" departPos="5.10" departSpeed="0.00" departDelay="0.00" arrival="173.00" arrivalLane="intersectionSE___southRight_0" arrivalPos="292.00" arrivalSpeed="15.72" duration="124.00" routeLength="1200.73" waitingTime="33.00" waitingCount="2" stopTime="0.00" timeLoss="51.06" rerouteNo="0" devices="tripinfo_4" vType="type1" speedFactor="1.20" vaporized=""/>
    <tripinfo id="7" depart="56.00" departLane="intersectionSW___intersectionS_0" departPos="5.10" departSpeed="0.00" departDelay="0.00" arrival="178.00" arrivalLane="intersectionSE___eastBottom_0" arrivalPos="292.00" arrivalSpeed="11.20" duration="122.00" routeLength="899.70" waitingTime="33.00" waitingCount="2" stopTime="0.00" timeLoss="50.01" rerouteNo="0" devices="tripinfo_7" vType="type1" speedFactor="0.91" vaporized=""/>
    <tripinfo id="37" depart="172.00" departLane="intersectionNW___intersectionN_0" departPos="5.10" departSpeed="0.00" departDelay="0.00" arrival="197.00" arrivalLane="intersectionNW___intersectionN_0" arrivalPos="292.00" arrivalSpeed="13.02" duration="25.00" routeLength="286.90" waitingTime="0.00" waitingCount="0" stopTime="0.00" timeLoss="3.49" rerouteNo="0" devices="tripinfo_37" vType="type1" speedFactor="0.99" vaporized=""/>
    <tripinfo id="12" depart="80.00" departLane="intersectionS___intersectionSE_0" departPos="5.10" departSpeed="0.00" departDelay="0.00" arrival="201.00" arrivalLane="intersectionE___eastMiddle_0" arrivalPos="292.00" arrivalSpeed="11.30" duration="121.00" routeLength="894.12" waitingTime="37.00" waitingCount="2" stopTime="0.00" timeLoss="51.16" rerouteNo="0" devices="tripinfo_12" vType="type1" speedFactor="0.93" vaporized=""/>
    <tripinfo id="17" depart="121.00" departLane="intersectionSW___intersectionS_0" departPos="5.10" departSpeed="0.00" departDelay="0.00" arrival="224.00" arrivalLane="intersectionSW___intersectionS_0" arrivalPos="292.00" arrivalSpeed="6.19" duration="103.00" routeLength="286.90" waitingTime="77.00" waitingCount="1" stopTime="0.00" timeLoss="83.23" rerouteNo="0" devices="tripinfo_17" vType="type1" speedFactor="1.05" vaporized=""/>
    <tripinfo id="11" depart="77.00" departLane="northMiddle___intersectionN_0" departPos="7.10" departSpeed="0.00" departDelay="0.00" arrival="227.00" arrivalLane="intersectionE___eastMiddle_0" arrivalPos="292.00" arrivalSpeed="13.32" duration="150.00" routeLength="1203.89" waitingTime="49.00" waitingCount="1" stopTime="0.00" timeLoss="62.66" rerouteNo="0" devices="tripinfo_11" vType="type2" speedFactor="1.00" vaporized=""/>
    <tripinfo id="25" depart="136.00" departLane="intersectionNW___intersectionN_0" departPos="5.10" departSpeed="0.00" departDelay="0.00" arrival="229.00" arrivalLane="intersectionNE___northRight_0" arrivalPos="292.00" arrivalSpeed="12.19" duration="93.00" routeLength="899.49" waitingTime="9.00" waitingCount="1" stopTime="0.00" timeLoss="21.74" rerouteNo="0" devices="tripinfo_25" vType="type1" speedFactor="0.91" vaporized=""/>
    <tripinfo id="57" depart="218.00" departLane="intersectionW___intersectionSW_0" departPos="5.10" departSpeed="0.00" departDelay="0.00" arrival="241.00" arrivalLane="intersectionW___intersectionSW_0" arrivalPos="292.00" arrivalSpeed="12.62" duration="23.00" routeLength="286.90" waitingTime="0.00" waitingCount="0" stopTime="0.00" timeLoss="3.25" rerouteNo="0" devices="tripinfo_57" vType="type1" speedFactor="1.08" vaporized=""/>
    <tripinfo id="29" depart="145.00" departLane="westTop___intersectionNW_0" departPos="7.10" departSpeed="0.00" departDelay="0.00" arrival="242.00" arrivalLane="intersectionCenter___intersectionE_0" arrivalPos="292.00" arrivalSpeed="11.85" duration="97.00" routeLength="1198.52" waitingTime="0.00" waitingCount="0" stopTime="0.00" timeLoss="9.97" rerouteNo="0" devices="tripinfo_29" vType="type2" speedFactor="1.00" vaporized=""/>
    <tripinfo id="13" depart="87.00" departLane="eastBottom___intersectionSE_0" departPos="5.10" departSpeed="0.00" departDelay="0.00" arrival="249.00" arrivalLane="intersectionS___southMiddle_0" arrivalPos="292.00" arrivalSpeed="13.06" duration="162.00" routeLength="899.49" waitingTime="84.00" waitingCount="2" stopTime="0.00" timeLoss="103.31" rerouteNo="0" devices="tripinfo_13" vType="type1" speedFactor="1.11" vaporized=""/>
    <tripinfo id="18" depart="121.00" departLane="intersectionE___intersectionCenter_0" departPos="7.10" departSpeed="0.00" departDelay="0.00" arrival="251.00" arrivalLane="intersectionW___intersectionNW_0" arrivalPos="292.00" arrivalSpeed="13.09" duration="130.00" routeLength="892.33" waitingTime="42.00" waitingCount="2" stopTime="0.00" timeLoss="65.27" rerouteNo="0" devices="tripinfo_18" vType="type2" speedFactor="1.00" vaporized=""/>
    <tripinfo id="31" depart="147.00" departLane="eastBottom___intersectionSE_0" departPos="5.10" departSpeed="0.00" departDelay="0.00" arrival="253.00" arrivalLane="intersectionS___intersectionCenter_0" arrivalPos="292.00" arrivalSpeed="6.98" duration="106.00" routeLength="894.33" waitingTime="28.00" waitingCount="1" stopTime="0.00" timeLoss="42.25" rerouteNo="0" devices="tripinfo_31" vType="type1" speedFactor="1.01" vaporized=""/>
    <tripinfo id="23" depart="135.00" departLane="intersectionNE___intersectionE_0" departPos="7.10" departSpeed="0.00" departDelay="0.00" arrival="256.00" arrivalLane="intersectionSE___intersectionE_0" arrivalPos="292.00" arrivalSpeed="13.46" duration="121.00" routeLength="1504.50" waitingTime="0.00" waitingCount="0" stopTime="0.00" timeLoss="12.57" rerouteNo="0" devices="tripinfo_23" vType="type2" speedFactor="1.00" vaporized=""/>
    <tripinfo id="34" depart="165.00" departLane="intersectionCenter___intersectionW_0" departPos="5.10" departSpeed="0.00" departDelay="2.00" arrival="264.00" arrivalLane="intersectionW___intersectionSW_0" arrivalPos="292.00" arrivalSpeed="6.88" duration="99.00" routeLength="593.09" waitingTime="32.00" waitingCount="2" stopTime="0.00" timeLoss="51.31" rerouteNo="0" devices="tripinfo_34" vType="type1" speedFactor="0.90" vaporized=""/>
    <tripinfo id="16" depart="119.00" departLane="intersectionNE___intersectionE_0" departPos="5.10" departSpeed="0.00" departDelay="0.00" arrival="266.00" arrivalLane="intersectionW___intersectionSW_0" arrivalPos="292.00" arrivalSpeed="9.21" duration="147.00" routeLength="1200.52" waitingTime="32.00" waitingCount="2" stopTime="0.00" timeLoss="66.15" rerouteNo="0" devices="tripinfo_16" vType="type1" speedFactor="1.07" vaporized=""/>
    <tripinfo id="14" depart="98.00" departLane="intersectionE___intersectionCenter_0" departPos="5.10" departSpeed="0.00" departDelay="0.00" arrival="267.00" arrivalLane="intersectionE___intersectionSE_0" arrivalPos="292.00" arrivalSpeed="13.71" duration="169.00" routeLength="1496.39" waitingTime="36.00" waitingCount="2" stopTime="0.00" timeLoss="60.16" rerouteNo="0" devices="tripinfo_14" vType="type1" speedFactor="1.00" vaporized=""/>
    <tripinfo id="47" depart="195.00" departLane="eastTop___intersectionNE_0" departPos="5.10" departSpeed="0.00" departDelay="0.00" arrival="269.00" arrivalLane="intersectionE___intersectionCenter_0" arrivalPos="292.00" arrivalSpeed="14.31" duration="74.00" routeLength="894.12" waitingTime="0.00" waitingCount="0" stopTime="0.00" timeLoss="17.83" rerouteNo="0" devices="tripinfo_47" vType="type1" speedFactor="1.16" vaporized=""/>
    <tripinfo id="38" depart="174.00" departLane="intersectionSE___intersectionS_0" departPos="5.10" departSpeed="0.00" departDelay="2.00" arrival="280.00" arrivalLane="intersectionSW___westBottom_0" arrivalPos="292.00" arrivalSpeed="11.95" duration="106.00" routeLength="899.70" waitingTime="27.00" waitingCount="1" stopTime="0.00" timeLoss="40.27" rerouteNo="0" devices="tripinfo_38" vType="type1" speedFactor="0.99" vaporized=""/>
    <tripinfo id="44" depart="183.00" departLane="intersectionNW___intersectionN_0" departPos="5.10" departSpeed="0.00" departDelay="0.00" arrival="283.00" arrivalLane="intersectionW___intersectionNW_0" arrivalPos="292.00" arrivalSpeed="13.40" duration="100.00" routeLength="1189.99" waitingTime="1.00" waitingCount="1" stopTime="0.00" timeLoss="18.41" rerouteNo="0" devices="tripinfo_44" vType="type1" speedFactor="1.06" vaporized=""/>
    <tripinfo id="43" depart="183.00" departLane="intersectionS___intersectionCenter_0" departPos="7.10" departSpeed="0.00" departDelay="0.00" arrival="287.00" arrivalLane="intersectionW___intersectionNW_0" arrivalPos="292.00" arrivalSpeed="13.08" duration="104.00" routeLength="892.12" waitingTime="25.00" waitingCount="2" stopTime="0.00" timeLoss="39.24" rerouteNo="0" devices="tripinfo_43" vType="type2" speedFactor="1.00" vaporized=""/>
    <tripinfo id="67" depart="236.00" departLane="intersectionNW___intersectionW_0" departPos="5.10" departSpeed="0.00" departDelay="0.00" arrival="287.00" arrivalLane="intersectionW___westMiddle_0" arrivalPos="292.00" arrivalSpeed="13.93" duration="51.00" routeLength="587.93" waitingTime="1.00" waitingCount="1" stopTime="0.00" timeLoss="8.88" rerouteNo="0" devices="tripinfo_67" vType="type1" speedFactor="1.01" vaporized=""/>
    <tripinfo id="9" depart="72.00" departLane="intersectionNE___intersectionE_0" departPos="5.10" departSpeed="0.00" departDelay="0.00" arrival="288.00" arrivalLane="intersectionW___intersectionCenter_0" arrivalPos="292.00" arrivalSpeed="14.79" duration="216.00" routeLength="1802.79" waitingTime="85.00" waitingCount="2" stopTime="0.00" timeLoss="104.78" rerouteNo="0" devices="tripinfo_9" vType="type1" speedFactor="1.17" vaporized=""/>
    <tripinfo id="0" depart="23.00" departLane="intersectionS___intersectionSE_0" departPos="5.10" departSpeed="0.00" departDelay="0.00" arrival="292.00" arrivalLane="intersectionSW___southLeft_0" arrivalPos="292.00" arrivalSpeed="10.87" duration="269.00" routeLength="1818.27" waitingTime="79.00" waitingCount="4" stopTime="0.00" timeLoss="110.01" rerouteNo="0" devices="tripinfo_0" vType="type1" speedFactor="0.82" vaporized=""/>
    <tripinfo id="35" depart="168.00" departLane="intersectionE___intersectionCenter_0" departPos="7.10" departSpeed="0.00" departDelay="0.00" arrival="292.00" arrivalLane="intersectionSW___westBottom_0" arrivalPos="292.00" arrivalSpeed="11.79" duration="124.00" routeLength="1198.52" waitingTime="14.00" waitingCount="2" stopTime="0.00" timeLoss="37.33" rerouteNo="0" devices="tripinfo_35" vType="type2" speedFactor="1.00" vaporized=""/>
    <tripinfo id="24" depart="136.00" departLane="eastBottom___intersectionSE_0" departPos="5.10" departSpeed="0.00" departDelay="0.00" arrival="297.00" arrivalLane="intersectionSW___intersectionS_0" arrivalPos="292.00" arrivalSpeed="11.87" duration="161.00" routeLength="1812.90" waitingTime="1.00" waitingCount="1" stopTime="0.00" timeLoss="23.65" rerouteNo="0" devices="tripinfo_24" vType="type1" speedFactor="0.95" vaporized=""/>
    <tripinfo id="32" depart="147.00" departLane="intersectionNW___intersectionW_0" departPos="5.10" departSpeed="0.00" departDelay="0.00" arrival="302.00" arrivalLane="intersectionSE___eastBottom_0" arrivalPos="292.00" arrivalSpeed="10.28" duration="155.00" routeLength="1512.29" waitingTime="0.00" waitingCount="0" stopTime="0.00" timeLoss="19.04" rerouteNo="0" devices="tripinfo_32" vType="type1" speedFactor="0.80" vaporized=""/>
    <tripinfo id="28" depart="143.00" departLane="intersectionW___intersectionNW_0" departPos="5.10" departSpeed="0.00" departDelay="0.00" arrival="308.00" arrivalLane="intersectionCenter___intersectionS_0" arrivalPos="292.00" arrivalSpeed="10.59" duration="165.00" routeLength="1195.36" waitingTime="42.00" waitingCount="3" stopTime="0.00" timeLoss="64.90" rerouteNo="0" devices="tripinfo_28" vType="type1" speedFactor="0.86" vaporized=""/>
    <tripinfo id="6" depart="55.00" departLane="intersectionN___intersectionNW_0" departPos="5.10" departSpeed="0.00" departDelay="0.00" arrival="309.00" arrivalLane="intersectionNE___eastTop_0" arrivalPos="292.00" arrivalSpeed="11.35" duration="254.00" routeLength="1812.90" waitingTime="82.00" waitingCount="4" stopTime="0.00" timeLoss="111.71" rerouteNo="0" devices="tripinfo_6" vType="type1" speedFactor="0.92" vaporized=""/>
    <tripinfo id="46" depart="188.00" departLane="intersectionNE___intersectionN_0" departPos="5.10" departSpeed="0.00" departDelay="0.00" arrival="313.00" arrivalLane="intersectionE___intersectionNE_0" arrivalPos="292.00" arrivalSpeed="13.79" duration="125.00" routeLength="1205.47" waitingTime="14.00" waitingCount="2" stopTime="0.00" timeLoss="38.59" rerouteNo="0" devices="tripinfo_46" vType="type1" speedFactor="1.01" vaporized=""/>
    <tripinfo id="8" depart="71.00" departLane="eastBottom___intersectionSE_0" departPos="5.10" departSpeed="0.00" departDelay="0.00" arrival="316.00" arrivalLane="intersectionE___intersectionSE_0" arrivalPos="292.00" arrivalSpeed="12.43" duration="245.00" routeLength="1496.39" waitingTime="103.00" waitingCount="3" stopTime="0.00" timeLoss="131.19" rerouteNo="0" devices="tripinfo_8" vType="type1" speedFactor="0.95" vaporized=""/>
    <tripinfo id="26" depart="138.00" departLane="northRight___intersectionNE_0" departPos="5.10" departSpeed="0.00" departDelay="0.00" arrival="319.00" arrivalLane="intersectionN___intersectionNE_0" arrivalPos="292.00" arrivalSpeed="11.34" duration="181.00" routeLength="1496.39" waitingTime="34.00" waitingCount="3" stopTime="0.00" timeLoss="58.96" rerouteNo="0" devices="tripinfo_26" vType="type1" speedFactor="0.89" vaporized=""/>
    <tripinfo id="55" depart="216.00" departLane="eastMiddle___intersectionE_0" departPos="5.10" departSpeed="0.00" departDelay="0.00" arrival="321.00" arrivalLane="intersectionN___intersectionNE_0" arrivalPos="292.00" arrivalSpeed="15.42" duration="105.00" routeLength="1195.36" waitingTime="6.00" waitingCount="1" stopTime="0.00" timeLoss="32.34" rerouteNo="0" devices="tripinfo_55" vType="type1" speedFactor="1.20" vaporized=""/>
    <tripinfo id="41" depart="179.00" departLane="eastMiddle___intersectionE_0" departPos="5.10" departSpeed="0.00" departDelay="0.00" arrival="322.00" arrivalLane="intersectionW___intersectionSW_0" arrivalPos="292.00" arrivalSpeed="11.11" duration="143.00" routeLength="1205.89" waitingTime="23.00" waitingCount="1" stopTime="0.00" timeLoss="39.75" rerouteNo="0" devices="tripinfo_41" vType="type1" speedFactor="0.85" vaporized=""/>
    <tripinfo id="74" depart="249.00" departLane="intersectionS___intersectionSW_0" departPos="5.10" departSpeed="0.00" departDelay="0.00" arrival="325.00" arrivalLane="intersectionSW___westBottom_0" arrivalPos="292.00" arrivalSpeed="12.50" duration="76.00" routeLength="593.30" waitingTime="28.00" waitingCount="1" stopTime="0.00" timeLoss="35.69" rerouteNo="0" devices="tripinfo_74" vType="type1" speedFactor="1.07" vaporized=""/>
    <tripinfo id="39" depart="172.00" departLane="intersectionCenter___intersectionE_0" departPos="5.10" departSpeed="0.00" departDelay="0.00" arrival="327.00" arrivalLane="intersectionSW___southLeft_0" arrivalPos="292.00" arrivalSpeed="13.92" duration="155.00" routeLength="1501.55" waitingTime="34.00" waitingCount="3" stopTime="0.00" timeLoss="55.06" rerouteNo="0" devices="tripinfo_39" vType="type1" speedFactor="1.09" vaporized=""/>
    <tripinfo id="65" depart="236.00" departLane="intersectionSE___intersectionE_0" departPos="5.10" departSpeed="0.00" departDelay="2.00" arrival="327.00" arrivalLane="intersectionNE___intersectionN_0" arrivalPos="292.00" arrivalSpeed="12.06" duration="91.00" routeLength="899.49" waitingTime="15.00" waitingCount="1" stopTime="0.00" timeLoss="26.40" rerouteNo="0" devices="tripinfo_65" vType="type1" speedFactor="1.01" vaporized=""/>
    <tripinfo id="20" depart="129.00" departLane="southRight___intersectionSE_0" departPos="5.10" departSpeed="0.00" departDelay="0.00" arrival="329.00" arrivalLane="intersectionNE___intersectionN_0" arrivalPos="292.00" arrivalSpeed="13.49" duration="200.00" routeLength="1205.89" waitingTime="97.00" waitingCount="2" stopTime="0.00" timeLoss="114.87" rerouteNo="0" devices="tripinfo_20" vType="type1" speedFactor="1.03" vaporized=""/>
    <tripinfo id="51" depart="205.00" departLane="intersectionN___intersectionCenter_0" departPos="5.10" departSpeed="0.00" departDelay="2.00" arrival="332.00" arrivalLane="intersectionNE___eastTop_0" arrivalPos="292.00" arrivalSpeed="13.86" duration="127.00" routeLength="1200.31" waitingTime="28.00" waitingCount="1" stopTime="0.00" timeLoss="42.23" rerouteNo="0" devices="tripinfo_51" vType="type1" speedFactor="1.02" vaporized=""/>
    <tripinfo id="60" depart="226.00" departLane="intersectionCenter___intersectionS_0" departPos="5.10" departSpeed="0.00" departDelay="0.00" arrival="332.00" arrivalLane="intersectionS___intersectionSW_0" arrivalPos="292.00" arrivalSpeed="11.80" duration="106.00" routeLength="587.93" waitingTime="45.00" waitingCount="1" stopTime="0.00" timeLoss="55.96" rerouteNo="0" devices="tripinfo_60" vType="type1" speedFactor="0.85" vaporized=""/>
    <tripinfo id="15" depart="110.00" departLane="westTop___intersectionNW_0" departPos="5.10" departSpeed="0.00" departDelay="0.00" arrival="333.00" arrivalLane="intersectionS___southMiddle_0" arrivalPos="292.00" arrivalSpeed="9.19" duration="223.00" routeLength="1507.13" waitingTime="65.00" waitingCount="2" stopTime="0.00" timeLoss="89.43" rerouteNo="0" devices="tripinfo_15" vType="type1" speedFactor="0.81" vaporized=""/>
    <tripinfo id="33" depart="160.00" departLane="eastBottom___intersectionSE_0" departPos="5.10" departSpeed="0.00" departDelay="0.00" arrival="333.00" arrivalLane="intersectionCenter___intersectionN_0" arrivalPos="292.00" arrivalSpeed="10.00" duration="173.00" routeLength="1200.73" waitingTime="48.00" waitingCount="2" stopTime="0.00" timeLoss="67.58" rerouteNo="0" devices="tripinfo_33" vType="type1" speedFactor="0.82" vaporized=""/>
    <tripinfo id="40" depart="174.00" departLane="northMiddle___intersectionN_0" departPos="5.10" departSpeed="0.00" departDelay="0.00" arrival="334.00" arrivalLane="intersectionS___intersectionSW_0" arrivalPos="292.00" arrivalSpeed="12.19" duration="160.00" routeLength="1200.73" waitingTime="46.00" waitingCount="2" stopTime="0.00" timeLoss="71.68" rerouteNo="0" devices="tripinfo_40" vType="type1" speedFactor="0.98" vaporized=""/>
    <tripinfo id="53" depart="208.00" departLane="intersectionN___intersectionNW_0" departPos="5.10" departSpeed="0.00" departDelay="2.00" arrival="337.00" arrivalLane="intersectionNW___westTop_0" arrivalPos="292.00" arrivalSpeed="11.79" duration="129.00" routeLength="593.30" waitingTime="70.00" waitingCount="2" stopTime="0.00" timeLoss="85.86" rerouteNo="0" devices="tripinfo_53" vType="type1" speedFactor="1.00" vaporized=""/>
    <tripinfo id="90" depart="274.00" departLane="intersectionCenter___intersectionS_0" departPos="5.10" departSpeed="0.00" departDelay="0.00" arrival="338.00" arrivalLane="intersectionS___intersectionSW_0" arrivalPos="292.00" arrivalSpeed="13.45" duration="64.00" routeLength="587.93" waitingTime="12.00" waitingCount="1" stopTime="0.00" timeLoss="24.66" rerouteNo="0" devices="tripinfo_90" vType="type1" speedFactor="1.10" vaporized=""/>
    <tripinfo id="36" depart="171.00" departLane="westBottom___intersectionSW_0" departPos="5.10" departSpeed="0.00" departDelay="0.00" arrival="352.00" arrivalLane="intersectionW___intersectionNW_0" arrivalPos="292.00" arrivalSpeed="11.27" duration="181.00" routeLength="899.49" waitingTime="87.00" waitingCount="3" stopTime="0.00" timeLoss="104.06" rerouteNo="0" devices="tripinfo_36" vType="type1" speedFactor="0.85" vaporized=""/>
    <tripinfo id="68" depart="237.00" departLane="westMiddle___intersectionW_0" departPos="5.10" departSpeed="0.00" departDelay="0.00" arrival="352.00" arrivalLane="intersectionSE___intersectionS_0" arrivalPos="292.00" arrivalSpeed="12.59" duration="115.00" routeLength="1501.76" waitingTime="1.00" waitingCount="1" stopTime="0.00" timeLoss="14.88" rerouteNo="0" devices="tripinfo_68" vType="type1" speedFactor="1.08" vaporized=""/>
    <tripinfo id="50" depart="200.00" departLane="westTop___intersectionNW_0" departPos="5.10" departSpeed="0.00" departDelay="0.00" arrival="355.00" arrivalLane="intersectionN___northMiddle_0" arrivalPos="292.00" arrivalSpeed="15.58" duration="155.00" routeLength="899.49" waitingTime="83.00" waitingCount="3" stopTime="0.00" timeLoss="101.51" rerouteNo="0" devices="tripinfo_50" vType="type1" speedFactor="1.21" vaporized=""/>
    <tripinfo id="56" depart="217.00" departLane="southLeft___intersectionSW_0" departPos="5.10" departSpeed="0.00" departDelay="0.00" arrival="364.00" arrivalLane="intersectionE___eastMiddle_0" arrivalPos="292.00" arrivalSpeed="15.51" duration="147.00" routeLength="1507.13" waitingTime="31.00" waitingCount="3" stopTime="0.00" timeLoss="53.22" rerouteNo="0" devices="tripinfo_56" vType="type1" speedFactor="1.17" vaporized=""/>
    <tripinfo id="27" depart="143.00" departLane="intersectionNE___intersectionN_0" departPos="5.10" departSpeed="0.00" departDelay="0.00" arrival="365.00" arrivalLane="intersectionN___intersectionNE_0" arrivalPos="292.00" arrivalSpeed="6.69" duration="222.00" routeLength="1802.58" waitingTime="46.00" waitingCount="3" stopTime="0.00" timeLoss="83.53" rerouteNo="0" devices="tripinfo_27" vType="type1" speedFactor="0.94" vaporized=""/>
    <tripinfo id="71" depart="247.00" departLane="northMiddle___intersectionN_0" departPos="5.10" departSpeed="0.00" departDelay="0.00" arrival="366.00" arrivalLane="intersectionS___southMiddle_0" arrivalPos="292.00" arrivalSpeed="14.33" duration="119.00" routeLength="1206.10" waitingTime="21.00" waitingCount="2" stopTime="0.00" timeLoss="35.14" rerouteNo="0" devices="tripinfo_71" vType="type1" speedFactor="1.04" vaporized=""/>
    <tripinfo id="63" depart="232.00" departLane="westTop___intersectionNW_0" departPos="5.10" departSpeed="0.00" departDelay="0.00" arrival="367.00" arrivalLane="intersectionN___intersectionCenter_0" arrivalPos="292.00" arrivalSpeed="13.85" duration="135.00" routeLength="894.33" waitingTime="43.00" waitingCount="1" stopTime="0.00" timeLoss="77.46" rerouteNo="0" devices="tripinfo_63" vType="type1" speedFactor="1.13" vaporized=""/>
    <tripinfo id="76" depart="251.00" departLane="intersectionNE___intersectionE_0" departPos="5.10" departSpeed="0.00" departDelay="0.00" arrival="371.00" arrivalLane="intersectionN___intersectionNE_0" arrivalPos="292.00" arrivalSpeed="11.59" duration="120.00" routeLength="1189.99" waitingTime="5.00" waitingCount="2" stopTime="0.00" timeLoss="29.97" rerouteNo="0" devices="tripinfo_76" vType="type1" speedFactor="0.95" vaporized=""/>
    <tripinfo id="2" depart="41.00" departLane="intersectionW___intersectionSW_0" departPos="5.10" departSpeed="0.00" departDelay="0.00" arrival="372.00" arrivalLane="intersectionW___intersectionNW_0" arrivalPos="292.00" arrivalSpeed="6.97" duration="331.00" routeLength="1506.50" waitingTime="174.00" waitingCount="6" stopTime="0.00" timeLoss="225.12" rerouteNo="0" devices="tripinfo_2" vType="type1" speedFactor="1.03" vaporized=""/>
    <tripinfo id="61" depart="228.00" departLane="intersectionNE___intersectionE_0" departPos="5.10" departSpeed="0.00" departDelay="0.00" arrival="374.00" arrivalLane="intersectionN___intersectionCenter_0" arrivalPos="292.00" arrivalSpeed="12.14" duration="146.00" routeLength="1797.42" waitingTime="1.00" waitingCount="1" stopTime="0.00" timeLoss="17.93" rerouteNo="0" devices="tripinfo_61" vType="type1" speedFactor="1.01" vaporized=""/>
    <tripinfo id="45" depart="185.00" departLane="intersectionSW___intersectionS_0" departPos="5.10" departSpeed="0.00" departDelay="0.00" arrival="379.00" arrivalLane="intersectionNE___northRight_0" arrivalPos="292.00" arrivalSpeed="9.79" duration="194.00" routeLength="1512.29" waitingTime="28.00" waitingCount="5" stopTime="0.00" timeLoss="64.91" rerouteNo="0" devices="tripinfo_45" vType="type1" speedFactor="0.85" vaporized=""/>
    <tripinfo id="106" depart="295.00" departLane="intersectionN___intersectionNW_0" departPos="5.10" departSpeed="0.00" departDelay="0.00" arrival="381.00" arrivalLane="intersectionNW___intersectionW_0" arrivalPos="292.00" arrivalSpeed="11.54" duration="86.00" routeLength="593.09" waitingTime="15.00" waitingCount="2" stopTime="0.00" timeLoss="37.82" rerouteNo="0" devices="tripinfo_106" vType="type1" speedFactor="0.89" vaporized=""/>
    <tripinfo id="59" depart="224.00" departLane="intersectionCenter___intersectionE_0" departPos="5.10" departSpeed="0.00" departDelay="0.00" arrival="383.00" arrivalLane="intersectionNW___westTop_0" arrivalPos="292.00" arrivalSpeed="15.69" duration="159.00" routeLength="1512.08" waitingTime="42.00" waitingCount="2" stopTime="0.00" timeLoss="69.84" rerouteNo="0" devices="tripinfo_59" vType="type1" speedFactor="1.23" vaporized=""/>
    <tripinfo id="128" depart="321.00" departLane="westTop___intersectionNW_0" departPos="5.10" departSpeed="0.00" departDelay="0.00" arrival="383.00" arrivalLane="intersectionNW___intersectionW_0" arrivalPos="292.00" arrivalSpeed="13.62" duration="62.00" routeLength="587.93" waitingTime="6.00" waitingCount="1" stopTime="0.00" timeLoss="20.38" rerouteNo="0" devices="tripinfo_128" vType="type1" speedFactor="1.03" vaporized=""/>
    <tripinfo id="85" depart="264.00" departLane="intersectionW___intersectionSW_0" departPos="5.10" departSpeed="0.00" departDelay="0.00" arrival="389.00" arrivalLane="intersectionS___intersectionSE_0" arrivalPos="292.00" arrivalSpeed="12.86" duration="125.00" routeLength="899.49" waitingTime="37.00" waitingCount="3" stopTime="0.00" timeLoss="64.40" rerouteNo="0" devices="tripinfo_85" vType="type1" speedFactor="1.08" vaporized=""/>
    <tripinfo id="120" depart="315.00" departLane="westMiddle___intersectionW_0" departPos="5.10" departSpeed="0.00" departDelay="0.00" arrival="389.00" arrivalLane="intersectionW___intersectionSW_0" arrivalPos="292.00" arrivalSpeed="10.86" duration="74.00" routeLength="587.93" waitingTime="24.00" waitingCount="2" stopTime="0.00" timeLoss="37.07" rerouteNo="0" devices="tripinfo_120" vType="type1" speedFactor="1.16" vaporized=""/>
    <tripinfo id="52" depart="204.00" departLane="intersectionS___intersectionCenter_0" departPos="5.10" departSpeed="0.00" departDelay="0.00" arrival="391.00" arrivalLane="intersectionS___intersectionSE_0" arrivalPos="292.00" arrivalSpeed="11.22" duration="187.00" routeLength="1511.87" waitingTime="33.00" waitingCount="4" stopTime="0.00" timeLoss="68.34" rerouteNo="0" devices="tripinfo_52" vType="type1" speedFactor="0.92" vaporized=""/>
    <tripinfo id="86" depart="265.00" departLane="intersectionNW___intersectionN_0" departPos="5.10" departSpeed="0.00" departDelay="0.00" arrival="391.00" arrivalLane="intersectionS___intersectionSW_0" arrivalPos="292.00" arrivalSpeed="13.94" duration="126.00" routeLength="1195.36" waitingTime="31.00" waitingCount="1" stopTime="0.00" timeLoss="47.36" rerouteNo="0" devices="tripinfo_86" vType="type1" speedFactor="1.10" vaporized=""/>