<?xml version="1.0" encoding="UTF-8"?>

<!-- generated on 2024-03-20 08:12:54 by Eclipse SUMO libsumo Version 1.19.0
<configuration xmlns:xsi="http://www.w3.org/2001/XMLSchema-instance" xsi:noNamespaceSchemaLocation="http://sumo.dlr.de/xsd/libsumoConfiguration.xsd">

    <input>
        <net-file value="./nets/3x3/network.net.xml"/>
        <route-files value="./nets/3x3/generated_route.rou.xml"/>
    </input>

    <output>
        <queue-output value="./DDQN/runs/3x3/run_10/QueueInfo/episode_3"/>
        <summary-output value="./DDQN/runs/3x3/run_10/Summary/episode_3"/>
        <tripinfo-output value="./DDQN/runs/3x3/run_10/VehicleInfo/episode_3"/>
    </output>

    <processing>
        <waiting-time-memory value="10000"/>
    </processing>

    <report>
        <no-warnings value="true"/>
        <log value="./nets/3x3/sumo_log.txt"/>
        <no-step-log value="true"/>
    </report>

    <emissions>
        <phemlight-path value="./nets/3x3/./PHEMlight/"/>
    </emissions>

    <random_number>
        <random value="true"/>
    </random_number>

</configuration>
-->

<tripinfos xmlns:xsi="http://www.w3.org/2001/XMLSchema-instance" xsi:noNamespaceSchemaLocation="http://sumo.dlr.de/xsd/tripinfo_file.xsd">
    <tripinfo id="0" depart="36.00" departLane="westMiddle___intersectionW_0" departPos="5.10" departSpeed="0.00" departDelay="0.00" arrival="85.00" arrivalLane="intersectionW___intersectionSW_0" arrivalPos="292.00" arrivalSpeed="12.31" duration="49.00" routeLength="587.93" waitingTime="2.00" waitingCount="1" stopTime="0.00" timeLoss="8.66" rerouteNo="0" devices="tripinfo_0" vType="type1" speedFactor="1.05" vaporized=""/>
    <tripinfo id="1" depart="53.00" departLane="eastTop___intersectionNE_0" departPos="5.10" departSpeed="0.00" departDelay="0.00" arrival="149.00" arrivalLane="intersectionCenter___intersectionW_0" arrivalPos="292.00" arrivalSpeed="12.24" duration="96.00" routeLength="1200.52" waitingTime="1.00" waitingCount="1" stopTime="0.00" timeLoss="12.48" rerouteNo="0" devices="tripinfo_1" vType="type1" speedFactor="1.04" vaporized=""/>
    <tripinfo id="18" depart="110.00" departLane="southRight___intersectionSE_0" departPos="5.10" departSpeed="0.00" departDelay="0.00" arrival="174.00" arrivalLane="intersectionS___intersectionCenter_0" arrivalPos="292.00" arrivalSpeed="14.31" duration="64.00" routeLength="894.12" waitingTime="0.00" waitingCount="0" stopTime="0.00" timeLoss="6.93" rerouteNo="0" devices="tripinfo_18" vType="type1" speedFactor="1.14" vaporized=""/>
    <tripinfo id="12" depart="104.00" departLane="intersectionNW___intersectionW_0" departPos="5.10" departSpeed="0.00" departDelay="0.00" arrival="186.00" arrivalLane="intersectionW___intersectionCenter_0" arrivalPos="292.00" arrivalSpeed="9.65" duration="82.00" routeLength="593.09" waitingTime="27.00" waitingCount="2" stopTime="0.00" timeLoss="40.53" rerouteNo="0" devices="tripinfo_12" vType="type1" speedFactor="1.03" vaporized=""/>
    <tripinfo id="3" depart="60.00" departLane="intersectionW___intersectionCenter_0" departPos="5.10" departSpeed="0.00" departDelay="0.00" arrival="195.00" arrivalLane="intersectionNE___northRight_0" arrivalPos="292.00" arrivalSpeed="10.85" duration="135.00" routeLength="1205.89" waitingTime="24.00" waitingCount="2" stopTime="0.00" timeLoss="42.84" rerouteNo="0" devices="tripinfo_3" vType="type1" speedFactor="0.95" vaporized=""/>
    <tripinfo id="29" depart="142.00" departLane="intersectionSW___intersectionW_0" departPos="5.10" departSpeed="0.00" departDelay="0.00" arrival="204.00" arrivalLane="intersectionW___intersectionNW_0" arrivalPos="292.00" arrivalSpeed="13.92" duration="62.00" routeLength="593.30" waitingTime="15.00" waitingCount="1" stopTime="0.00" timeLoss="24.42" rerouteNo="0" devices="tripinfo_29" vType="type1" speedFactor="1.14" vaporized=""/>
    <tripinfo id="2" depart="56.00" departLane="southLeft___intersectionSW_0" departPos="5.10" departSpeed="0.00" departDelay="0.00" arrival="214.00" arrivalLane="intersectionSW___southLeft_0" arrivalPos="292.00" arrivalSpeed="10.80" duration="158.00" routeLength="1802.58" waitingTime="1.00" waitingCount="1" stopTime="0.00" timeLoss="20.32" rerouteNo="0" devices="tripinfo_2" vType="type1" speedFactor="0.95" vaporized=""/>
    <tripinfo id="5" depart="72.00" departLane="intersectionSW___intersectionW_0" departPos="5.10" departSpeed="0.00" departDelay="0.00" arrival="215.00" arrivalLane="intersectionE___intersectionCenter_0" arrivalPos="292.00" arrivalSpeed="13.97" duration="143.00" routeLength="1802.79" waitingTime="4.00" waitingCount="2" stopTime="0.00" timeLoss="25.26" rerouteNo="0" devices="tripinfo_5" vType="type1" speedFactor="1.11" vaporized=""/>
    <tripinfo id="4" depart="69.00" departLane="intersectionS___intersectionCenter_0" departPos="5.10" departSpeed="0.00" departDelay="0.00" arrival="231.00" arrivalLane="intersectionSE___intersectionE_0" arrivalPos="292.00" arrivalSpeed="12.26" duration="162.00" routeLength="1818.06" waitingTime="18.00" waitingCount="3" stopTime="0.00" timeLoss="41.43" rerouteNo="0" devices="tripinfo_4" vType="type1" speedFactor="1.09" vaporized=""/>
    <tripinfo id="16" depart="108.00" departLane="intersectionSE___intersectionS_0" departPos="5.10" departSpeed="0.00" departDelay="0.00" arrival="245.00" arrivalLane="intersectionW___westMiddle_0" arrivalPos="292.00" arrivalSpeed="14.68" duration="137.00" routeLength="1200.52" waitingTime="34.00" waitingCount="2" stopTime="0.00" timeLoss="55.86" rerouteNo="0" devices="tripinfo_16" vType="type1" speedFactor="1.07" vaporized=""/>
    <tripinfo id="21" depart="119.00" departLane="intersectionNW___intersectionN_0" departPos="5.10" departSpeed="0.00" departDelay="0.00" arrival="249.00" arrivalLane="intersectionW___westMiddle_0" arrivalPos="292.00" arrivalSpeed="13.54" duration="130.00" routeLength="1195.36" waitingTime="25.00" waitingCount="1" stopTime="0.00" timeLoss="44.66" rerouteNo="0" devices="tripinfo_21" vType="type1" speedFactor="1.01" vaporized=""/>
    <tripinfo id="8" depart="81.00" departLane="westMiddle___intersectionW_0" departPos="5.10" departSpeed="0.00" departDelay="0.00" arrival="251.00" arrivalLane="intersectionN___northMiddle_0" arrivalPos="292.00" arrivalSpeed="10.23" duration="170.00" routeLength="1205.89" waitingTime="41.00" waitingCount="3" stopTime="0.00" timeLoss="62.56" rerouteNo="0" devices="tripinfo_8" vType="type1" speedFactor="0.81" vaporized=""/>
    <tripinfo id="25" depart="129.00" departLane="intersectionSE___intersectionE_0" departPos="5.10" departSpeed="0.00" departDelay="0.00" arrival="253.00" arrivalLane="intersectionW___intersectionNW_0" arrivalPos="292.00" arrivalSpeed="11.93" duration="124.00" routeLength="1200.52" waitingTime="16.00" waitingCount="2" stopTime="0.00" timeLoss="35.85" rerouteNo="0" devices="tripinfo_25" vType="type1" speedFactor="0.98" vaporized=""/>
    <tripinfo id="31" depart="155.00" departLane="intersectionE___intersectionCenter_0" departPos="5.10" departSpeed="0.00" departDelay="0.00" arrival="256.00" arrivalLane="intersectionNE___northRight_0" arrivalPos="292.00" arrivalSpeed="13.84" duration="101.00" routeLength="1195.15" waitingTime="6.00" waitingCount="2" stopTime="0.00" timeLoss="21.62" rerouteNo="0" devices="tripinfo_31" vType="type1" speedFactor="1.10" vaporized=""/>
    <tripinfo id="27" depart="137.00" departLane="intersectionNW___intersectionN_0" departPos="5.10" departSpeed="0.00" departDelay="0.00" arrival="261.00" arrivalLane="intersectionS___southMiddle_0" arrivalPos="292.00" arrivalSpeed="9.70" duration="124.00" routeLength="1200.73" waitingTime="10.00" waitingCount="1" stopTime="0.00" timeLoss="25.18" rerouteNo="0" devices="tripinfo_27" vType="type1" speedFactor="0.88" vaporized=""/>
    <tripinfo id="7" depart="78.00" departLane="intersectionW___intersectionSW_0" departPos="5.10" departSpeed="0.00" departDelay="0.00" arrival="264.00" arrivalLane="intersectionW___westMiddle_0" arrivalPos="292.00" arrivalSpeed="9.89" duration="186.00" routeLength="1511.87" waitingTime="31.00" waitingCount="4" stopTime="0.00" timeLoss="59.74" rerouteNo="0" devices="tripinfo_7" vType="type1" speedFactor="0.87" vaporized=""/>
    <tripinfo id="9" depart="82.00" departLane="intersectionN___intersectionNW_0" departPos="5.10" departSpeed="0.00" departDelay="0.00" arrival="267.00" arrivalLane="intersectionNE___intersectionE_0" arrivalPos="292.00" arrivalSpeed="13.21" duration="185.00" routeLength="1807.53" waitingTime="26.00" waitingCount="2" stopTime="0.00" timeLoss="59.01" rerouteNo="0" devices="tripinfo_9" vType="type1" speedFactor="1.03" vaporized=""/>
    <tripinfo id="48" depart="196.00" departLane="intersectionE___intersectionCenter_0" departPos="5.10" departSpeed="0.00" departDelay="2.00" arrival="270.00" arrivalLane="intersectionS___southMiddle_0" arrivalPos="292.00" arrivalSpeed="13.91" duration="74.00" routeLength="899.49" waitingTime="0.00" waitingCount="0" stopTime="0.00" timeLoss="10.19" rerouteNo="0" devices="tripinfo_48" vType="type1" speedFactor="1.03" vaporized=""/>
    <tripinfo id="75" depart="249.00" departLane="intersectionCenter___intersectionS_0" departPos="5.10" departSpeed="0.00" departDelay="1.00" arrival="273.00" arrivalLane="intersectionCenter___intersectionS_0" arrivalPos="292.00" arrivalSpeed="14.03" duration="24.00" routeLength="286.90" waitingTime="0.00" waitingCount="0" stopTime="0.00" timeLoss="4.03" rerouteNo="0" devices="tripinfo_75" vType="type1" speedFactor="1.08" vaporized=""/>
    <tripinfo id="6" depart="76.00" departLane="intersectionN___intersectionNE_0" departPos="5.10" departSpeed="0.00" departDelay="0.00" arrival="275.00" arrivalLane="intersectionNW___northLeft_0" arrivalPos="292.00" arrivalSpeed="12.96" duration="199.00" routeLength="1802.79" waitingTime="46.00" waitingCount="2" stopTime="0.00" timeLoss="67.09" rerouteNo="0" devices="tripinfo_6" vType="type1" speedFactor="0.98" vaporized=""/>
    <tripinfo id="26" depart="134.00" departLane="intersectionSE___intersectionS_0" departPos="5.10" departSpeed="0.00" departDelay="2.00" arrival="280.00" arrivalLane="intersectionS___intersectionSE_0" arrivalPos="292.00" arrivalSpeed="12.88" duration="146.00" routeLength="1802.58" waitingTime="0.00" waitingCount="0" stopTime="0.00" timeLoss="14.29" rerouteNo="0" devices="tripinfo_26" vType="type1" speedFactor="0.99" vaporized=""/>
    <tripinfo id="40" depart="177.00" departLane="intersectionS___intersectionSE_0" departPos="5.10" departSpeed="0.00" departDelay="0.00" arrival="281.00" arrivalLane="intersectionCenter___intersectionS_0" arrivalPos="292.00" arrivalSpeed="10.87" duration="104.00" routeLength="1205.47" waitingTime="0.00" waitingCount="0" stopTime="0.00" timeLoss="12.09" rerouteNo="0" devices="tripinfo_40" vType="type1" speedFactor="0.95" vaporized=""/>
    <tripinfo id="24" depart="126.00" departLane="intersectionN___intersectionNW_0" departPos="7.10" departSpeed="0.00" departDelay="0.00" arrival="291.00" arrivalLane="intersectionN___northMiddle_0" arrivalPos="292.00" arrivalSpeed="13.49" duration="165.00" routeLength="1509.87" waitingTime="27.00" waitingCount="3" stopTime="0.00" timeLoss="55.36" rerouteNo="0" devices="tripinfo_24" vType="type2" speedFactor="1.00" vaporized=""/>
    <tripinfo id="13" depart="105.00" departLane="intersectionSE___intersectionS_0" departPos="5.10" departSpeed="0.00" departDelay="0.00" arrival="294.00" arrivalLane="intersectionSE___eastBottom_0" arrivalPos="292.00" arrivalSpeed="12.52" duration="189.00" routeLength="1496.18" waitingTime="59.00" waitingCount="4" stopTime="0.00" timeLoss="84.44" rerouteNo="0" devices="tripinfo_13" vType="type1" speedFactor="1.04" vaporized=""/>
    <tripinfo id="14" depart="107.00" departLane="intersectionE___intersectionNE_0" departPos="7.10" departSpeed="0.00" departDelay="0.00" arrival="295.00" arrivalLane="intersectionCenter___intersectionE_0" arrivalPos="292.00" arrivalSpeed="12.49" duration="188.00" routeLength="1203.47" waitingTime="76.00" waitingCount="2" stopTime="0.00" timeLoss="100.88" rerouteNo="0" devices="tripinfo_14" vType="type2" speedFactor="1.00" vaporized=""/>
    <tripinfo id="10" depart="86.00" departLane="eastMiddle___intersectionE_0" departPos="5.10" departSpeed="0.00" departDelay="0.00" arrival="297.00" arrivalLane="intersectionCenter___intersectionE_0" arrivalPos="292.00" arrivalSpeed="11.37" duration="211.00" routeLength="1496.18" waitingTime="55.00" waitingCount="5" stopTime="0.00" timeLoss="94.17" rerouteNo="0" devices="tripinfo_10" vType="type1" speedFactor="0.93" vaporized=""/>
    <tripinfo id="51" depart="199.00" departLane="intersectionCenter___intersectionW_0" departPos="5.10" departSpeed="0.00" departDelay="0.00" arrival="302.00" arrivalLane="intersectionSW___intersectionS_0" arrivalPos="292.00" arrivalSpeed="8.55" duration="103.00" routeLength="899.28" waitingTime="21.00" waitingCount="3" stopTime="0.00" timeLoss="45.77" rerouteNo="0" devices="tripinfo_51" vType="type1" speedFactor="1.14" vaporized=""/>
    <tripinfo id="56" depart="209.00" departLane="intersectionCenter___intersectionW_0" departPos="5.10" departSpeed="0.00" departDelay="1.00" arrival="304.00" arrivalLane="intersectionSW___intersectionS_0" arrivalPos="292.00" arrivalSpeed="9.86" duration="95.00" routeLength="899.28" waitingTime="4.00" waitingCount="1" stopTime="0.00" timeLoss="21.45" rerouteNo="0" devices="tripinfo_56" vType="type1" speedFactor="0.89" vaporized=""/>
    <tripinfo id="97" depart="279.00" departLane="intersectionCenter___intersectionW_0" departPos="5.10" departSpeed="0.00" departDelay="0.00" arrival="306.00" arrivalLane="intersectionCenter___intersectionW_0" arrivalPos="292.00" arrivalSpeed="10.75" duration="27.00" routeLength="286.90" waitingTime="0.00" waitingCount="0" stopTime="0.00" timeLoss="3.63" rerouteNo="0" devices="tripinfo_97" vType="type1" speedFactor="0.92" vaporized=""/>
    <tripinfo id="23" depart="123.00" departLane="northLeft___intersectionNW_0" departPos="5.10" departSpeed="0.00" departDelay="0.00" arrival="308.00" arrivalLane="intersectionSW___intersectionW_0" arrivalPos="292.00" arrivalSpeed="12.83" duration="185.00" routeLength="1802.58" waitingTime="17.00" waitingCount="3" stopTime="0.00" timeLoss="44.70" rerouteNo="0" devices="tripinfo_23" vType="type1" speedFactor="0.93" vaporized=""/>
    <tripinfo id="36" depart="165.00" departLane="intersectionSE___intersectionS_0" departPos="5.10" departSpeed="0.00" departDelay="0.00" arrival="308.00" arrivalLane="intersectionN___intersectionNW_0" arrivalPos="292.00" arrivalSpeed="7.78" duration="143.00" routeLength="1200.52" waitingTime="27.00" waitingCount="2" stopTime="0.00" timeLoss="46.13" rerouteNo="0" devices="tripinfo_36" vType="type1" speedFactor="0.89" vaporized=""/>
    <tripinfo id="15" depart="107.00" departLane="intersectionNE___intersectionN_0" departPos="5.10" departSpeed="0.00" departDelay="0.00" arrival="313.00" arrivalLane="intersectionE___eastMiddle_0" arrivalPos="292.00" arrivalSpeed="8.98" duration="206.00" routeLength="1205.68" waitingTime="80.00" waitingCount="1" stopTime="0.00" timeLoss="98.76" rerouteNo="0" devices="tripinfo_15" vType="type1" speedFactor="0.81" vaporized=""/>
    <tripinfo id="37" depart="168.00" departLane="intersectionS___intersectionSW_0" departPos="5.10" departSpeed="0.00" departDelay="0.00" arrival="313.00" arrivalLane="intersectionSE___intersectionE_0" arrivalPos="292.00" arrivalSpeed="10.85" duration="145.00" routeLength="1802.37" waitingTime="0.00" waitingCount="0" stopTime="0.00" timeLoss="19.31" rerouteNo="0" devices="tripinfo_37" vType="type1" speedFactor="1.04" vaporized=""/>
    <tripinfo id="63" depart="224.00" departLane="northLeft___intersectionNW_0" departPos="5.10" departSpeed="0.00" departDelay="0.00" arrival="313.00" arrivalLane="intersectionSW___southLeft_0" arrivalPos="292.00" arrivalSpeed="13.21" duration="89.00" routeLength="1206.10" waitingTime="0.00" waitingCount="0" stopTime="0.00" timeLoss="9.22" rerouteNo="0" devices="tripinfo_63" vType="type1" speedFactor="1.10" vaporized=""/>
    <tripinfo id="20" depart="117.00" departLane="northLeft___intersectionNW_0" departPos="5.10" departSpeed="0.00" departDelay="0.00" arrival="321.00" arrivalLane="intersectionS___intersectionCenter_0" arrivalPos="292.00" arrivalSpeed="15.09" duration="204.00" routeLength="1512.08" waitingTime="79.00" waitingCount="3" stopTime="0.00" timeLoss="109.07" rerouteNo="0" devices="tripinfo_20" vType="type1" speedFactor="1.15" vaporized=""/>
    <tripinfo id="45" depart="192.00" departLane="intersectionE___intersectionNE_0" departPos="5.10" departSpeed="0.00" departDelay="0.00" arrival="324.00" arrivalLane="intersectionS___southMiddle_0" arrivalPos="292.00" arrivalSpeed="13.83" duration="132.00" routeLength="1512.08" waitingTime="13.00" waitingCount="3" stopTime="0.00" timeLoss="36.33" rerouteNo="0" devices="tripinfo_45" vType="type1" speedFactor="1.14" vaporized=""/>
    <tripinfo id="65" depart="234.00" departLane="southMiddle___intersectionS_0" departPos="5.10" departSpeed="0.00" departDelay="0.00" arrival="325.00" arrivalLane="intersectionSW___intersectionW_0" arrivalPos="292.00" arrivalSpeed="10.93" duration="91.00" routeLength="894.12" waitingTime="1.00" waitingCount="1" stopTime="0.00" timeLoss="14.41" rerouteNo="0" devices="tripinfo_65" vType="type1" speedFactor="0.85" vaporized=""/>
    <tripinfo id="112" depart="301.00" departLane="intersectionN___intersectionCenter_0" departPos="5.10" departSpeed="0.00" departDelay="3.00" arrival="325.00" arrivalLane="intersectionN___intersectionCenter_0" arrivalPos="292.00" arrivalSpeed="12.67" duration="24.00" routeLength="286.90" waitingTime="0.00" waitingCount="0" stopTime="0.00" timeLoss="3.74" rerouteNo="0" devices="tripinfo_112" vType="type1" speedFactor="1.02" vaporized=""/>
    <tripinfo id="35" depart="165.00" departLane="westMiddle___intersectionW_0" departPos="7.10" departSpeed="0.00" departDelay="0.00" arrival="327.00" arrivalLane="intersectionSW___intersectionW_0" arrivalPos="292.00" arrivalSpeed="13.21" duration="162.00" routeLength="1494.39" waitingTime="31.00" waitingCount="2" stopTime="0.00" timeLoss="53.61" rerouteNo="0" devices="tripinfo_35" vType="type2" speedFactor="1.00" vaporized=""/>
    <tripinfo id="17" depart="110.00" departLane="intersectionW___intersectionCenter_0" departPos="7.10" departSpeed="0.00" departDelay="1.00" arrival="336.00" arrivalLane="intersectionE___intersectionNE_0" arrivalPos="292.00" arrivalSpeed="13.51" duration="226.00" routeLength="897.49" waitingTime="132.00" waitingCount="4" stopTime="0.00" timeLoss="160.88" rerouteNo="0" devices="tripinfo_17" vType="type2" speedFactor="1.00" vaporized=""/>
    <tripinfo id="108" depart="293.00" departLane="eastTop___intersectionNE_0" departPos="5.10" departSpeed="0.00" departDelay="0.00" arrival="342.00" arrivalLane="intersectionNE___intersectionN_0" arrivalPos="292.00" arrivalSpeed="11.38" duration="49.00" routeLength="593.30" waitingTime="0.00" waitingCount="0" stopTime="0.00" timeLoss="5.70" rerouteNo="0" devices="tripinfo_108" vType="type1" speedFactor="0.99" vaporized=""/>
    <tripinfo id="101" depart="284.00" departLane="westTop___intersectionNW_0" departPos="5.10" departSpeed="0.00" departDelay="0.00" arrival="345.00" arrivalLane="intersectionNW___intersectionW_0" arrivalPos="292.00" arrivalSpeed="5.53" duration="61.00" routeLength="587.93" waitingTime="6.00" waitingCount="1" stopTime="0.00" timeLoss="19.33" rerouteNo="0" devices="tripinfo_101" vType="type1" speedFactor="1.02" vaporized=""/>
    <tripinfo id="104" depart="288.00" departLane="southLeft___intersectionSW_0" departPos="5.10" departSpeed="0.00" departDelay="0.00" arrival="345.00" arrivalLane="intersectionSW___intersectionS_0" arrivalPos="292.00" arrivalSpeed="6.62" duration="57.00" routeLength="587.93" waitingTime="2.00" waitingCount="1" stopTime="0.00" timeLoss="11.56" rerouteNo="0" devices="tripinfo_104" vType="type1" speedFactor="0.94" vaporized=""/>
    <tripinfo id="69" depart="239.00" departLane="southMiddle___intersectionS_0" departPos="5.10" departSpeed="0.00" departDelay="0.00" arrival="351.00" arrivalLane="intersectionE___eastMiddle_0" arrivalPos="292.00" arrivalSpeed="13.15" duration="112.00" routeLength="1200.73" waitingTime="10.00" waitingCount="1" stopTime="0.00" timeLoss="29.29" rerouteNo="0" devices="tripinfo_69" vType="type1" speedFactor="1.05" vaporized=""/>
    <tripinfo id="93" depart="275.00" departLane="westMiddle___intersectionW_0" departPos="5.10" departSpeed="0.00" departDelay="0.00" arrival="351.00" arrivalLane="intersectionSW___southLeft_0" arrivalPos="292.00" arrivalSpeed="12.47" duration="76.00" routeLength="894.33" waitingTime="1.00" waitingCount="1" stopTime="0.00" timeLoss="11.26" rerouteNo="0" devices="tripinfo_93" vType="type1" speedFactor="1.00" vaporized=""/>
    <tripinfo id="42" depart="186.00" departLane="southRight___intersectionSE_0" departPos="5.10" departSpeed="0.00" departDelay="0.00" arrival="352.00" arrivalLane="intersectionE___intersectionNE_0" arrivalPos="292.00" arrivalSpeed="12.74" duration="166.00" routeLength="899.70" waitingTime="65.00" waitingCount="3" stopTime="0.00" timeLoss="100.71" rerouteNo="0" devices="tripinfo_42" vType="type1" speedFactor="1.00" vaporized=""/>
    <tripinfo id="98" depart="280.00" departLane="northMiddle___intersectionN_0" departPos="5.10" departSpeed="0.00" departDelay="0.00" arrival="352.00" arrivalLane="intersectionNW___intersectionW_0" arrivalPos="292.00" arrivalSpeed="13.37" duration="72.00" routeLength="894.12" waitingTime="1.00" waitingCount="1" stopTime="0.00" timeLoss="11.95" rerouteNo="0" devices="tripinfo_98" vType="type1" speedFactor="1.08" vaporized=""/>
    <tripinfo id="38" depart="169.00" departLane="intersectionNE___intersectionN_0" departPos="5.10" departSpeed="0.00" departDelay="0.00" arrival="354.00" arrivalLane="intersectionE___intersectionSE_0" arrivalPos="292.00" arrivalSpeed="10.33" duration="185.00" routeLength="1200.31" waitingTime="45.00" waitingCount="3" stopTime="0.00" timeLoss="80.36" rerouteNo="0" devices="tripinfo_38" vType="type1" speedFactor="0.83" vaporized=""/>
    <tripinfo id="66" depart="235.00" departLane="intersectionSE___intersectionE_0" departPos="7.10" departSpeed="0.00" departDelay="0.00" arrival="354.00" arrivalLane="intersectionNE___eastTop_0" arrivalPos="292.00" arrivalSpeed="13.31" duration="119.00" routeLength="892.33" waitingTime="39.00" waitingCount="1" stopTime="0.00" timeLoss="54.25" rerouteNo="0" devices="tripinfo_66" vType="type2" speedFactor="1.00" vaporized=""/>
    <tripinfo id="88" depart="269.00" departLane="intersectionCenter___intersectionE_0" departPos="5.10" departSpeed="0.00" departDelay="0.00" arrival="354.00" arrivalLane="intersectionE___intersectionNE_0" arrivalPos="292.00" arrivalSpeed="13.59" duration="85.00" routeLength="593.09" waitingTime="16.00" waitingCount="3" stopTime="0.00" timeLoss="44.02" rerouteNo="0" devices="tripinfo_88" vType="type1" speedFactor="1.06" vaporized=""/>
    <tripinfo id="86" depart="263.00" departLane="intersectionN___intersectionCenter_0" departPos="5.10" departSpeed="0.00" departDelay="0.00" arrival="355.00" arrivalLane="intersectionE___eastMiddle_0" arrivalPos="292.00" arrivalSpeed="13.47" duration="92.00" routeLength="899.49" waitingTime="9.00" waitingCount="1" stopTime="0.00" timeLoss="25.15" rerouteNo="0" devices="tripinfo_86" vType="type1" speedFactor="0.98" vaporized=""/>
    <tripinfo id="22" depart="122.00" departLane="westMiddle___intersectionW_0" departPos="5.10" departSpeed="0.00" departDelay="0.00" arrival="364.00" arrivalLane="intersectionE___intersectionCenter_0" arrivalPos="292.00" arrivalSpeed="5.89" duration="242.00" routeLength="1802.58" waitingTime="75.00" waitingCount="2" stopTime="0.00" timeLoss="105.92" rerouteNo="0" devices="tripinfo_22" vType="type1" speedFactor="0.95" vaporized=""/>
    <tripinfo id="70" depart="240.00" departLane="intersectionS___intersectionCenter_0" departPos="5.10" departSpeed="0.00" departDelay="0.00" arrival="364.00" arrivalLane="intersectionNW___northLeft_0" arrivalPos="292.00" arrivalSpeed="14.47" duration="124.00" routeLength="1200.52" waitingTime="36.00" waitingCount="1" stopTime="0.00" timeLoss="50.00" rerouteNo="0" devices="tripinfo_70" vType="type1" speedFactor="1.18" vaporized=""/>
    <tripinfo id="77" depart="248.00" departLane="intersectionCenter___intersectionE_0" departPos="5.10" departSpeed="0.00" departDelay="0.00" arrival="366.00" arrivalLane="intersectionSE___intersectionS_0" arrivalPos="292.00" arrivalSpeed="8.86" duration="118.00" routeLength="888.96" waitingTime="16.00" waitingCount="2" stopTime="0.00" timeLoss="38.98" rerouteNo="0" devices="tripinfo_77" vType="type1" speedFactor="0.81" vaporized=""/>
    <tripinfo id="73" depart="243.00" departLane="intersectionS___intersectionCenter_0" departPos="5.10" departSpeed="0.00" departDelay="0.00" arrival="368.00" arrivalLane="intersectionNW___westTop_0" arrivalPos="292.00" arrivalSpeed="14.98" duration="125.00" routeLength="1205.89" waitingTime="34.00" waitingCount="1" stopTime="0.00" timeLoss="48.21" rerouteNo="0" devices="tripinfo_73" vType="type1" speedFactor="1.14" vaporized=""/>
    <tripinfo id="11" depart="90.00" departLane="intersectionN___intersectionNW_0" departPos="5.10" departSpeed="0.00" departDelay="0.00" arrival="370.00" arrivalLane="intersectionNE___northRight_0" arrivalPos="292.00" arrivalSpeed="10.85" duration="280.00" routeLength="1818.27" waitingTime="87.00" waitingCount="3" stopTime="0.00" timeLoss="137.89" rerouteNo="0" devices="tripinfo_11" vType="type1" speedFactor="0.92" vaporized=""/>
    <tripinfo id="83" depart="258.00" departLane="intersectionW___intersectionNW_0" departPos="5.10" departSpeed="0.00" departDelay="0.00" arrival="371.00" arrivalLane="intersectionNE___intersectionE_0" arrivalPos="292.00" arrivalSpeed="13.37" duration="113.00" routeLength="1195.36" waitingTime="11.00" waitingCount="1" stopTime="0.00" timeLoss="28.33" rerouteNo="0" devices="tripinfo_83" vType="type1" speedFactor="1.02" vaporized=""/>
    <tripinfo id="34" depart="164.00" departLane="southRight___intersectionSE_0" departPos="5.10" departSpeed="0.00" departDelay="0.00" arrival="372.00" arrivalLane="intersectionNE___northRight_0" arrivalPos="292.00" arrivalSpeed="13.95" duration="208.00" routeLength="1206.10" waitingTime="93.00" waitingCount="3" stopTime="0.00" timeLoss="129.80" rerouteNo="0" devices="tripinfo_34" vType="type1" speedFactor="1.12" vaporized=""/>
    <tripinfo id="44" depart="191.00" departLane="intersectionS___intersectionSW_0" departPos="5.10" departSpeed="0.00" departDelay="0.00" arrival="373.00" arrivalLane="intersectionNE___intersectionE_0" arrivalPos="292.00" arrivalSpeed="15.36" duration="182.00" routeLength="1802.79" waitingTime="38.00" waitingCount="3" stopTime="0.00" timeLoss="76.91" rerouteNo="0" devices="tripinfo_44" vType="type1" speedFactor="1.24" vaporized=""/>
    <tripinfo id="103" depart="284.00" departLane="intersectionCenter___intersectionE_0" departPos="5.10" departSpeed="0.00" departDelay="0.00" arrival="377.00" arrivalLane="intersectionNE___northRight_0" arrivalPos="292.00" arrivalSpeed="13.28" duration="93.00" routeLength="899.49" waitingTime="11.00" waitingCount="1" stopTime="0.00" timeLoss="34.46" rerouteNo="0" devices="tripinfo_103" vType="type1" speedFactor="1.11" vaporized=""/>
    <tripinfo id="52" depart="201.00" departLane="eastTop___intersectionNE_0" departPos="5.10" departSpeed="0.00" departDelay="0.00" arrival="378.00" arrivalLane="intersectionW___intersectionSW_0" arrivalPos="292.00" arrivalSpeed="9.93" duration="177.00" routeLength="1512.29" waitingTime="19.00" waitingCount="3" stopTime="0.00" timeLoss="48.50" rerouteNo="0" devices="tripinfo_52" vType="type1" speedFactor="0.85" vaporized=""/>
    <tripinfo id="19" depart="111.00" departLane="intersectionW___intersectionSW_0" departPos="5.10" departSpeed="0.00" departDelay="0.00" arrival="380.00" arrivalLane="intersectionW___intersectionCenter_0" arrivalPos="292.00" arrivalSpeed="11.25" duration="269.00" routeLength="2124.25" waitingTime="51.00" waitingCount="3" stopTime="0.00" timeLoss="94.44" rerouteNo="0" devices="tripinfo_19" vType="type1" speedFactor="0.88" vaporized=""/>
    <tripinfo id="138" depart="329.00" departLane="intersectionCenter___intersectionN_0" departPos="5.10" departSpeed="0.00" departDelay="0.00" arrival="380.00" arrivalLane="intersectionN___northMiddle_0" arrivalPos="292.00" arrivalSpeed="12.94" duration="51.00" routeLength="593.30" waitingTime="0.00" waitingCount="0" stopTime="0.00" timeLoss="6.00" rerouteNo="0" devices="tripinfo_138" vType="type1" speedFactor="0.95" vaporized=""/>
    <tripinfo id="76" depart="248.00" departLane="eastMiddle___intersectionE_0" departPos="5.10" departSpeed="0.00" departDelay="0.00" arrival="383.00" arrivalLane="intersectionE___intersectionCenter_0" arrivalPos="292.00" arrivalSpeed="4.52" duration="135.00" routeLength="593.30" waitingTime="76.00" waitingCount="3" stopTime="0.00" timeLoss="99.81" rerouteNo="0" devices="tripinfo_76" vType="type1" speedFactor="1.22" vaporized=""/>
    <tripinfo id="150" depart="342.00" departLane="intersectionW___intersectionNW_0" departPos="5.10" departSpeed="0.00" departDelay="4.00" arrival="387.00" arrivalLane="intersectionW___intersectionNW_0" arrivalPos="292.00" arrivalSpeed="11.62" duration="45.00" routeLength="286.90" waitingTime="11.00" waitingCount="2" stopTime="0.00" timeLoss="23.36" rerouteNo="0" devices="tripinfo_150" vType="type1" speedFactor="0.99" vaporized=""/>
    <tripinfo id="39" depart="176.00" departLane="intersectionSE___intersectionS_0" departPos="5.10" departSpeed="0.00" departDelay="1.00" arrival="388.00" arrivalLane="intersectionW___intersectionNW_0" arrivalPos="292.00" arrivalSpeed="10.91" duration="212.00" routeLength="1200.73" waitingTime="85.00" waitingCount="5" stopTime="0.00" timeLoss="125.90" rerouteNo="0" devices="tripinfo_39" vType="type1" speedFactor="1.00" vaporized=""/>