<?xml version="1.0" encoding="UTF-8"?>

<!-- generated on 2024-03-20 08:18:03 by Eclipse SUMO libsumo Version 1.19.0
<configuration xmlns:xsi="http://www.w3.org/2001/XMLSchema-instance" xsi:noNamespaceSchemaLocation="http://sumo.dlr.de/xsd/libsumoConfiguration.xsd">

    <input>
        <net-file value="./nets/3x3/network.net.xml"/>
        <route-files value="./nets/3x3/generated_route.rou.xml"/>
    </input>

    <output>
        <queue-output value="./DDQN/runs/3x3/run_10/QueueInfo/episode_8"/>
        <summary-output value="./DDQN/runs/3x3/run_10/Summary/episode_8"/>
        <tripinfo-output value="./DDQN/runs/3x3/run_10/VehicleInfo/episode_8"/>
    </output>

    <processing>
        <waiting-time-memory value="10000"/>
    </processing>

    <report>
        <no-warnings value="true"/>
        <log value="./nets/3x3/sumo_log.txt"/>
        <no-step-log value="true"/>
    </report>

    <emissions>
        <phemlight-path value="./nets/3x3/./PHEMlight/"/>
    </emissions>

    <random_number>
        <random value="true"/>
    </random_number>

</configuration>
-->

<summary xmlns:xsi="http://www.w3.org/2001/XMLSchema-instance" xsi:noNamespaceSchemaLocation="http://sumo.dlr.de/xsd/summary_file.xsd">
    <step time="0.00" loaded="1" inserted="0" running="0" waiting="0" ended="0" arrived="0" collisions="0" teleports="0" halting="0" stopped="0" meanWaitingTime="-1.00" meanTravelTime="-1.00" meanSpeed="-1.00" meanSpeedRelative="-1.00" duration="0"/>
    <step time="1.00" loaded="1" inserted="0" running="0" waiting="0" ended="0" arrived="0" collisions="0" teleports="0" halting="0" stopped="0" meanWaitingTime="-1.00" meanTravelTime="-1.00" meanSpeed="-1.00" meanSpeedRelative="-1.00" duration="0"/>
    <step time="2.00" loaded="1" inserted="0" running="0" waiting="0" ended="0" arrived="0" collisions="0" teleports="0" halting="0" stopped="0" meanWaitingTime="-1.00" meanTravelTime="-1.00" meanSpeed="-1.00" meanSpeedRelative="-1.00" duration="0"/>
    <step time="3.00" loaded="1" inserted="0" running="0" waiting="0" ended="0" arrived="0" collisions="0" teleports="0" halting="0" stopped="0" meanWaitingTime="-1.00" meanTravelTime="-1.00" meanSpeed="-1.00" meanSpeedRelative="-1.00" duration="0"/>
    <step time="4.00" loaded="1" inserted="0" running="0" waiting="0" ended="0" arrived="0" collisions="0" teleports="0" halting="0" stopped="0" meanWaitingTime="-1.00" meanTravelTime="-1.00" meanSpeed="-1.00" meanSpeedRelative="-1.00" duration="0"/>
    <step time="5.00" loaded="1" inserted="0" running="0" waiting="0" ended="0" arrived="0" collisions="0" teleports="0" halting="0" stopped="0" meanWaitingTime="-1.00" meanTravelTime="-1.00" meanSpeed="-1.00" meanSpeedRelative="-1.00" duration="1"/>
    <step time="6.00" loaded="1" inserted="0" running="0" waiting="0" ended="0" arrived="0" collisions="0" teleports="0" halting="0" stopped="0" meanWaitingTime="-1.00" meanTravelTime="-1.00" meanSpeed="-1.00" meanSpeedRelative="-1.00" duration="0"/>
    <step time="7.00" loaded="1" inserted="0" running="0" waiting="0" ended="0" arrived="0" collisions="0" teleports="0" halting="0" stopped="0" meanWaitingTime="-1.00" meanTravelTime="-1.00" meanSpeed="-1.00" meanSpeedRelative="-1.00" duration="0"/>
    <step time="8.00" loaded="1" inserted="0" running="0" waiting="0" ended="0" arrived="0" collisions="0" teleports="0" halting="0" stopped="0" meanWaitingTime="-1.00" meanTravelTime="-1.00" meanSpeed="-1.00" meanSpeedRelative="-1.00" duration="0"/>
    <step time="9.00" loaded="1" inserted="0" running="0" waiting="0" ended="0" arrived="0" collisions="0" teleports="0" halting="0" stopped="0" meanWaitingTime="-1.00" meanTravelTime="-1.00" meanSpeed="-1.00" meanSpeedRelative="-1.00" duration="0"/>
    <step time="10.00" loaded="1" inserted="0" running="0" waiting="0" ended="0" arrived="0" collisions="0" teleports="0" halting="0" stopped="0" meanWaitingTime="-1.00" meanTravelTime="-1.00" meanSpeed="-1.00" meanSpeedRelative="-1.00" duration="0"/>
    <step time="11.00" loaded="1" inserted="0" running="0" waiting="0" ended="0" arrived="0" collisions="0" teleports="0" halting="0" stopped="0" meanWaitingTime="-1.00" meanTravelTime="-1.00" meanSpeed="-1.00" meanSpeedRelative="-1.00" duration="0"/>
    <step time="12.00" loaded="1" inserted="0" running="0" waiting="0" ended="0" arrived="0" collisions="0" teleports="0" halting="0" stopped="0" meanWaitingTime="-1.00" meanTravelTime="-1.00" meanSpeed="-1.00" meanSpeedRelative="-1.00" duration="0"/>
    <step time="13.00" loaded="1" inserted="0" running="0" waiting="0" ended="0" arrived="0" collisions="0" teleports="0" halting="0" stopped="0" meanWaitingTime="-1.00" meanTravelTime="-1.00" meanSpeed="-1.00" meanSpeedRelative="-1.00" duration="0"/>
    <step time="14.00" loaded="1" inserted="0" running="0" waiting="0" ended="0" arrived="0" collisions="0" teleports="0" halting="0" stopped="0" meanWaitingTime="-1.00" meanTravelTime="-1.00" meanSpeed="-1.00" meanSpeedRelative="-1.00" duration="0"/>
    <step time="15.00" loaded="1" inserted="0" running="0" waiting="0" ended="0" arrived="0" collisions="0" teleports="0" halting="0" stopped="0" meanWaitingTime="-1.00" meanTravelTime="-1.00" meanSpeed="-1.00" meanSpeedRelative="-1.00" duration="0"/>
    <step time="16.00" loaded="60" inserted="1" running="1" waiting="0" ended="0" arrived="0" collisions="0" teleports="0" halting="1" stopped="0" meanWaitingTime="0.00" meanTravelTime="-1.00" meanSpeed="0.00" meanSpeedRelative="0.00" duration="10"/>
    <step time="17.00" loaded="60" inserted="1" running="1" waiting="0" ended="0" arrived="0" collisions="0" teleports="0" halting="0" stopped="0" meanWaitingTime="0.00" meanTravelTime="-1.00" meanSpeed="4.86" meanSpeedRelative="0.35" duration="0"/>
    <step time="18.00" loaded="60" inserted="1" running="1" waiting="0" ended="0" arrived="0" collisions="0" teleports="0" halting="0" stopped="0" meanWaitingTime="0.00" meanTravelTime="-1.00" meanSpeed="7.79" meanSpeedRelative="0.56" duration="0"/>
    <step time="19.00" loaded="60" inserted="1" running="1" waiting="0" ended="0" arrived="0" collisions="0" teleports="0" halting="0" stopped="0" meanWaitingTime="0.00" meanTravelTime="-1.00" meanSpeed="12.32" meanSpeedRelative="0.89" duration="0"/>
    <step time="20.00" loaded="60" inserted="1" running="1" waiting="0" ended="0" arrived="0" collisions="0" teleports="0" halting="0" stopped="0" meanWaitingTime="0.00" meanTravelTime="-1.00" meanSpeed="12.76" meanSpeedRelative="0.92" duration="0"/>
    <step time="21.00" loaded="60" inserted="1" running="1" waiting="0" ended="0" arrived="0" collisions="0" teleports="0" halting="0" stopped="0" meanWaitingTime="0.00" meanTravelTime="-1.00" meanSpeed="13.11" meanSpeedRelative="0.94" duration="0"/>
    <step time="22.00" loaded="60" inserted="1" running="1" waiting="0" ended="0" arrived="0" collisions="0" teleports="0" halting="0" stopped="0" meanWaitingTime="0.00" meanTravelTime="-1.00" meanSpeed="12.96" meanSpeedRelative="0.93" duration="0"/>
    <step time="23.00" loaded="60" inserted="1" running="1" waiting="0" ended="0" arrived="0" collisions="0" teleports="0" halting="0" stopped="0" meanWaitingTime="0.00" meanTravelTime="-1.00" meanSpeed="12.72" meanSpeedRelative="0.92" duration="0"/>
    <step time="24.00" loaded="60" inserted="1" running="1" waiting="0" ended="0" arrived="0" collisions="0" teleports="0" halting="0" stopped="0" meanWaitingTime="0.00" meanTravelTime="-1.00" meanSpeed="11.58" meanSpeedRelative="0.83" duration="0"/>
    <step time="25.00" loaded="60" inserted="1" running="1" waiting="0" ended="0" arrived="0" collisions="0" teleports="0" halting="0" stopped="0" meanWaitingTime="0.00" meanTravelTime="-1.00" meanSpeed="13.19" meanSpeedRelative="0.95" duration="0"/>
    <step time="26.00" loaded="60" inserted="1" running="1" waiting="0" ended="0" arrived="0" collisions="0" teleports="0" halting="0" stopped="0" meanWaitingTime="0.00" meanTravelTime="-1.00" meanSpeed="13.00" meanSpeedRelative="0.94" duration="0"/>
    <step time="27.00" loaded="60" inserted="1" running="1" waiting="0" ended="0" arrived="0" collisions="0" teleports="0" halting="0" stopped="0" meanWaitingTime="0.00" meanTravelTime="-1.00" meanSpeed="11.56" meanSpeedRelative="0.83" duration="0"/>
    <step time="28.00" loaded="60" inserted="1" running="1" waiting="0" ended="0" arrived="0" collisions="0" teleports="0" halting="0" stopped="0" meanWaitingTime="0.00" meanTravelTime="-1.00" meanSpeed="12.64" meanSpeedRelative="0.91" duration="0"/>
    <step time="29.00" loaded="60" inserted="1" running="1" waiting="0" ended="0" arrived="0" collisions="0" teleports="0" halting="0" stopped="0" meanWaitingTime="0.00" meanTravelTime="-1.00" meanSpeed="11.16" meanSpeedRelative="0.80" duration="0"/>
    <step time="30.00" loaded="60" inserted="1" running="1" waiting="0" ended="0" arrived="0" collisions="0" teleports="0" halting="0" stopped="0" meanWaitingTime="0.00" meanTravelTime="-1.00" meanSpeed="13.19" meanSpeedRelative="0.95" duration="0"/>
    <step time="31.00" loaded="60" inserted="1" running="1" waiting="0" ended="0" arrived="0" collisions="0" teleports="0" halting="0" stopped="0" meanWaitingTime="0.00" meanTravelTime="-1.00" meanSpeed="12.21" meanSpeedRelative="0.88" duration="0"/>
    <step time="32.00" loaded="60" inserted="2" running="2" waiting="0" ended="0" arrived="0" collisions="0" teleports="0" halting="1" stopped="0" meanWaitingTime="0.00" meanTravelTime="-1.00" meanSpeed="5.64" meanSpeedRelative="0.41" duration="1"/>
    <step time="33.00" loaded="60" inserted="2" running="2" waiting="0" ended="0" arrived="0" collisions="0" teleports="0" halting="0" stopped="0" meanWaitingTime="0.00" meanTravelTime="-1.00" meanSpeed="8.21" meanSpeedRelative="0.59" duration="0"/>
    <step time="34.00" loaded="60" inserted="2" running="2" waiting="0" ended="0" arrived="0" collisions="0" teleports="0" halting="0" stopped="0" meanWaitingTime="0.00" meanTravelTime="-1.00" meanSpeed="9.64" meanSpeedRelative="0.69" duration="0"/>
    <step time="35.00" loaded="60" inserted="2" running="2" waiting="0" ended="0" arrived="0" collisions="0" teleports="0" halting="0" stopped="0" meanWaitingTime="0.00" meanTravelTime="-1.00" meanSpeed="11.34" meanSpeedRelative="0.82" duration="0"/>
    <step time="36.00" loaded="60" inserted="2" running="2" waiting="0" ended="0" arrived="0" collisions="0" teleports="0" halting="0" stopped="0" meanWaitingTime="0.00" meanTravelTime="-1.00" meanSpeed="11.52" meanSpeedRelative="0.83" duration="0"/>
    <step time="37.00" loaded="60" inserted="2" running="2" waiting="0" ended="0" arrived="0" collisions="0" teleports="0" halting="0" stopped="0" meanWaitingTime="0.00" meanTravelTime="-1.00" meanSpeed="12.00" meanSpeedRelative="0.86" duration="0"/>
    <step time="38.00" loaded="60" inserted="2" running="2" waiting="0" ended="0" arrived="0" collisions="0" teleports="0" halting="0" stopped="0" meanWaitingTime="0.00" meanTravelTime="-1.00" meanSpeed="11.71" meanSpeedRelative="0.84" duration="0"/>
    <step time="39.00" loaded="60" inserted="2" running="2" waiting="0" ended="0" arrived="0" collisions="0" teleports="0" halting="0" stopped="0" meanWaitingTime="0.00" meanTravelTime="-1.00" meanSpeed="11.67" meanSpeedRelative="0.84" duration="0"/>
    <step time="40.00" loaded="60" inserted="2" running="2" waiting="0" ended="0" arrived="0" collisions="0" teleports="0" halting="0" stopped="0" meanWaitingTime="0.00" meanTravelTime="-1.00" meanSpeed="10.98" meanSpeedRelative="0.79" duration="0"/>
    <step time="41.00" loaded="60" inserted="2" running="2" waiting="0" ended="0" arrived="0" collisions="0" teleports="0" halting="0" stopped="0" meanWaitingTime="0.00" meanTravelTime="-1.00" meanSpeed="9.35" meanSpeedRelative="0.67" duration="0"/>
    <step time="42.00" loaded="60" inserted="2" running="2" waiting="0" ended="0" arrived="0" collisions="0" teleports="0" halting="0" stopped="0" meanWaitingTime="0.00" meanTravelTime="-1.00" meanSpeed="6.99" meanSpeedRelative="0.50" duration="0"/>
    <step time="43.00" loaded="60" inserted="2" running="2" waiting="0" ended="0" arrived="0" collisions="0" teleports="0" halting="0" stopped="0" meanWaitingTime="0.00" meanTravelTime="-1.00" meanSpeed="5.53" meanSpeedRelative="0.40" duration="0"/>
    <step time="44.00" loaded="60" inserted="2" running="2" waiting="0" ended="0" arrived="0" collisions="0" teleports="0" halting="1" stopped="0" meanWaitingTime="0.00" meanTravelTime="-1.00" meanSpeed="5.88" meanSpeedRelative="0.42" duration="0"/>
    <step time="45.00" loaded="60" inserted="3" running="3" waiting="0" ended="0" arrived="0" collisions="0" teleports="0" halting="2" stopped="0" meanWaitingTime="0.00" meanTravelTime="-1.00" meanSpeed="3.43" meanSpeedRelative="0.25" duration="0"/>
    <step time="46.00" loaded="60" inserted="4" running="4" waiting="0" ended="0" arrived="0" collisions="0" teleports="0" halting="2" stopped="0" meanWaitingTime="0.00" meanTravelTime="-1.00" meanSpeed="4.29" meanSpeedRelative="0.31" duration="0"/>
    <step time="47.00" loaded="60" inserted="4" running="4" waiting="0" ended="0" arrived="0" collisions="0" teleports="0" halting="1" stopped="0" meanWaitingTime="0.00" meanTravelTime="-1.00" meanSpeed="5.99" meanSpeedRelative="0.43" duration="0"/>
    <step time="48.00" loaded="60" inserted="4" running="4" waiting="0" ended="0" arrived="0" collisions="0" teleports="0" halting="1" stopped="0" meanWaitingTime="0.00" meanTravelTime="-1.00" meanSpeed="7.63" meanSpeedRelative="0.55" duration="0"/>
    <step time="49.00" loaded="60" inserted="4" running="4" waiting="0" ended="0" arrived="0" collisions="0" teleports="0" halting="1" stopped="0" meanWaitingTime="0.00" meanTravelTime="-1.00" meanSpeed="9.36" meanSpeedRelative="0.67" duration="0"/>
    <step time="50.00" loaded="60" inserted="5" running="5" waiting="0" ended="0" arrived="0" collisions="0" teleports="0" halting="2" stopped="0" meanWaitingTime="0.00" meanTravelTime="-1.00" meanSpeed="7.63" meanSpeedRelative="0.55" duration="0"/>
    <step time="51.00" loaded="60" inserted="5" running="5" waiting="0" ended="0" arrived="0" collisions="0" teleports="0" halting="1" stopped="0" meanWaitingTime="0.00" meanTravelTime="-1.00" meanSpeed="8.51" meanSpeedRelative="0.61" duration="0"/>
    <step time="52.00" loaded="60" inserted="5" running="5" waiting="0" ended="0" arrived="0" collisions="0" teleports="0" halting="1" stopped="0" meanWaitingTime="0.00" meanTravelTime="-1.00" meanSpeed="9.09" meanSpeedRelative="0.65" duration="0"/>
    <step time="53.00" loaded="60" inserted="5" running="5" waiting="0" ended="0" arrived="0" collisions="0" teleports="0" halting="1" stopped="0" meanWaitingTime="0.00" meanTravelTime="-1.00" meanSpeed="9.84" meanSpeedRelative="0.71" duration="0"/>
    <step time="54.00" loaded="60" inserted="5" running="5" waiting="0" ended="0" arrived="0" collisions="0" teleports="0" halting="1" stopped="0" meanWaitingTime="0.00" meanTravelTime="-1.00" meanSpeed="10.37" meanSpeedRelative="0.75" duration="0"/>
    <step time="55.00" loaded="60" inserted="5" running="5" waiting="0" ended="0" arrived="0" collisions="0" teleports="0" halting="1" stopped="0" meanWaitingTime="0.00" meanTravelTime="-1.00" meanSpeed="10.75" meanSpeedRelative="0.77" duration="0"/>
    <step time="56.00" loaded="60" inserted="5" running="5" waiting="0" ended="0" arrived="0" collisions="0" teleports="0" halting="1" stopped="0" meanWaitingTime="0.00" meanTravelTime="-1.00" meanSpeed="10.35" meanSpeedRelative="0.75" duration="0"/>
    <step time="57.00" loaded="60" inserted="5" running="5" waiting="0" ended="0" arrived="0" collisions="0" teleports="0" halting="1" stopped="0" meanWaitingTime="0.00" meanTravelTime="-1.00" meanSpeed="10.17" meanSpeedRelative="0.73" duration="0"/>
    <step time="58.00" loaded="60" inserted="5" running="5" waiting="0" ended="0" arrived="0" collisions="0" teleports="0" halting="1" stopped="0" meanWaitingTime="0.00" meanTravelTime="-1.00" meanSpeed="10.14" meanSpeedRelative="0.73" duration="1"/>
    <step time="59.00" loaded="60" inserted="5" running="5" waiting="0" ended="0" arrived="0" collisions="0" teleports="0" halting="1" stopped="0" meanWaitingTime="0.00" meanTravelTime="-1.00" meanSpeed="10.73" meanSpeedRelative="0.77" duration="0"/>
    <step time="60.00" loaded="60" inserted="5" running="5" waiting="0" ended="0" arrived="0" collisions="0" teleports="0" halting="1" stopped="0" meanWaitingTime="0.00" meanTravelTime="-1.00" meanSpeed="10.89" meanSpeedRelative="0.78" duration="0"/>
    <step time="61.00" loaded="60" inserted="5" running="5" waiting="0" ended="0" arrived="0" collisions="0" teleports="0" halting="1" stopped="0" meanWaitingTime="0.00" meanTravelTime="-1.00" meanSpeed="10.22" meanSpeedRelative="0.74" duration="0"/>
    <step time="62.00" loaded="60" inserted="5" running="5" waiting="0" ended="0" arrived="0" collisions="0" teleports="0" halting="0" stopped="0" meanWaitingTime="0.00" meanTravelTime="-1.00" meanSpeed="10.51" meanSpeedRelative="0.76" duration="0"/>
    <step time="63.00" loaded="60" inserted="5" running="5" waiting="0" ended="0" arrived="0" collisions="0" teleports="0" halting="0" stopped="0" meanWaitingTime="0.00" meanTravelTime="-1.00" meanSpeed="11.56" meanSpeedRelative="0.83" duration="0"/>
    <step time="64.00" loaded="60" inserted="5" running="5" waiting="0" ended="0" arrived="0" collisions="0" teleports="0" halting="0" stopped="0" meanWaitingTime="0.00" meanTravelTime="-1.00" meanSpeed="12.78" meanSpeedRelative="0.92" duration="0"/>
    <step time="65.00" loaded="60" inserted="5" running="5" waiting="0" ended="0" arrived="0" collisions="0" teleports="0" halting="0" stopped="0" meanWaitingTime="0.00" meanTravelTime="-1.00" meanSpeed="12.67" meanSpeedRelative="0.91" duration="1"/>
    <step time="66.00" loaded="60" inserted="5" running="5" waiting="0" ended="0" arrived="0" collisions="0" teleports="0" halting="0" stopped="0" meanWaitingTime="0.00" meanTravelTime="-1.00" meanSpeed="12.26" meanSpeedRelative="0.88" duration="0"/>
    <step time="67.00" loaded="60" inserted="5" running="5" waiting="0" ended="0" arrived="0" collisions="0" teleports="0" halting="0" stopped="0" meanWaitingTime="0.00" meanTravelTime="-1.00" meanSpeed="12.60" meanSpeedRelative="0.91" duration="0"/>
    <step time="68.00" loaded="60" inserted="5" running="5" waiting="0" ended="0" arrived="0" collisions="0" teleports="0" halting="0" stopped="0" meanWaitingTime="0.00" meanTravelTime="-1.00" meanSpeed="10.68" meanSpeedRelative="0.77" duration="0"/>
    <step time="69.00" loaded="60" inserted="5" running="5" waiting="0" ended="0" arrived="0" collisions="0" teleports="0" halting="0" stopped="0" meanWaitingTime="0.00" meanTravelTime="-1.00" meanSpeed="11.94" meanSpeedRelative="0.86" duration="0"/>
    <step time="70.00" loaded="60" inserted="6" running="6" waiting="0" ended="0" arrived="0" collisions="0" teleports="0" halting="1" stopped="0" meanWaitingTime="0.00" meanTravelTime="-1.00" meanSpeed="10.73" meanSpeedRelative="0.77" duration="0"/>
    <step time="71.00" loaded="60" inserted="6" running="6" waiting="0" ended="0" arrived="0" collisions="0" teleports="0" halting="0" stopped="0" meanWaitingTime="0.00" meanTravelTime="-1.00" meanSpeed="11.20" meanSpeedRelative="0.81" duration="0"/>
    <step time="72.00" loaded="60" inserted="6" running="6" waiting="0" ended="0" arrived="0" collisions="0" teleports="0" halting="0" stopped="0" meanWaitingTime="0.00" meanTravelTime="-1.00" meanSpeed="11.97" meanSpeedRelative="0.86" duration="0"/>
    <step time="73.00" loaded="60" inserted="6" running="6" waiting="0" ended="0" arrived="0" collisions="0" teleports="0" halting="0" stopped="0" meanWaitingTime="0.00" meanTravelTime="-1.00" meanSpeed="12.98" meanSpeedRelative="0.93" duration="1"/>
    <step time="74.00" loaded="60" inserted="6" running="6" waiting="0" ended="0" arrived="0" collisions="0" teleports="0" halting="0" stopped="0" meanWaitingTime="0.00" meanTravelTime="-1.00" meanSpeed="13.09" meanSpeedRelative="0.94" duration="0"/>
    <step time="75.00" loaded="60" inserted="6" running="6" waiting="0" ended="0" arrived="0" collisions="0" teleports="0" halting="0" stopped="0" meanWaitingTime="0.00" meanTravelTime="-1.00" meanSpeed="12.97" meanSpeedRelative="0.93" duration="0"/>
    <step time="76.00" loaded="60" inserted="6" running="6" waiting="0" ended="0" arrived="0" collisions="0" teleports="0" halting="0" stopped="0" meanWaitingTime="0.00" meanTravelTime="-1.00" meanSpeed="13.02" meanSpeedRelative="0.94" duration="0"/>
    <step time="77.00" loaded="60" inserted="6" running="6" waiting="0" ended="0" arrived="0" collisions="0" teleports="0" halting="0" stopped="0" meanWaitingTime="0.00" meanTravelTime="-1.00" meanSpeed="12.69" meanSpeedRelative="0.91" duration="0"/>
    <step time="78.00" loaded="60" inserted="7" running="7" waiting="0" ended="0" arrived="0" collisions="0" teleports="0" halting="1" stopped="0" meanWaitingTime="0.00" meanTravelTime="-1.00" meanSpeed="11.19" meanSpeedRelative="0.81" duration="0"/>
    <step time="79.00" loaded="60" inserted="7" running="7" waiting="0" ended="0" arrived="0" collisions="0" teleports="0" halting="0" stopped="0" meanWaitingTime="0.00" meanTravelTime="-1.00" meanSpeed="11.42" meanSpeedRelative="0.82" duration="0"/>
    <step time="80.00" loaded="60" inserted="7" running="7" waiting="0" ended="0" arrived="0" collisions="0" teleports="0" halting="0" stopped="0" meanWaitingTime="0.00" meanTravelTime="-1.00" meanSpeed="12.00" meanSpeedRelative="0.86" duration="0"/>
    <step time="81.00" loaded="60" inserted="8" running="8" waiting="0" ended="0" arrived="0" collisions="0" teleports="0" halting="1" stopped="0" meanWaitingTime="0.00" meanTravelTime="-1.00" meanSpeed="11.01" meanSpeedRelative="0.79" duration="0"/>
    <step time="82.00" loaded="60" inserted="8" running="8" waiting="0" ended="0" arrived="0" collisions="0" teleports="0" halting="0" stopped="0" meanWaitingTime="0.00" meanTravelTime="-1.00" meanSpeed="12.17" meanSpeedRelative="0.88" duration="0"/>
    <step time="83.00" loaded="60" inserted="8" running="8" waiting="0" ended="0" arrived="0" collisions="0" teleports="0" halting="0" stopped="0" meanWaitingTime="0.00" meanTravelTime="-1.00" meanSpeed="12.13" meanSpeedRelative="0.87" duration="0"/>
    <step time="84.00" loaded="60" inserted="8" running="8" waiting="0" ended="0" arrived="0" collisions="0" teleports="0" halting="0" stopped="0" meanWaitingTime="0.00" meanTravelTime="-1.00" meanSpeed="12.87" meanSpeedRelative="0.93" duration="0"/>
    <step time="85.00" loaded="60" inserted="8" running="8" waiting="0" ended="0" arrived="0" collisions="0" teleports="0" halting="0" stopped="0" meanWaitingTime="0.00" meanTravelTime="-1.00" meanSpeed="13.31" meanSpeedRelative="0.96" duration="0"/>
    <step time="86.00" loaded="60" inserted="8" running="8" waiting="0" ended="0" arrived="0" collisions="0" teleports="0" halting="0" stopped="0" meanWaitingTime="0.00" meanTravelTime="-1.00" meanSpeed="12.78" meanSpeedRelative="0.92" duration="0"/>
    <step time="87.00" loaded="60" inserted="8" running="8" waiting="0" ended="0" arrived="0" collisions="0" teleports="0" halting="0" stopped="0" meanWaitingTime="0.00" meanTravelTime="-1.00" meanSpeed="13.08" meanSpeedRelative="0.94" duration="0"/>
    <step time="88.00" loaded="60" inserted="8" running="8" waiting="0" ended="0" arrived="0" collisions="0" teleports="0" halting="0" stopped="0" meanWaitingTime="0.00" meanTravelTime="-1.00" meanSpeed="13.17" meanSpeedRelative="0.95" duration="0"/>
    <step time="89.00" loaded="60" inserted="8" running="8" waiting="0" ended="0" arrived="0" collisions="0" teleports="0" halting="0" stopped="0" meanWaitingTime="0.00" meanTravelTime="-1.00" meanSpeed="12.64" meanSpeedRelative="0.91" duration="0"/>
    <step time="90.00" loaded="60" inserted="9" running="9" waiting="0" ended="0" arrived="0" collisions="0" teleports="0" halting="1" stopped="0" meanWaitingTime="0.00" meanTravelTime="-1.00" meanSpeed="11.61" meanSpeedRelative="0.84" duration="1"/>
    <step time="91.00" loaded="60" inserted="9" running="9" waiting="0" ended="0" arrived="0" collisions="0" teleports="0" halting="0" stopped="0" meanWaitingTime="0.00" meanTravelTime="-1.00" meanSpeed="12.14" meanSpeedRelative="0.87" duration="0"/>
    <step time="92.00" loaded="60" inserted="9" running="9" waiting="0" ended="0" arrived="0" collisions="0" teleports="0" halting="0" stopped="0" meanWaitingTime="0.00" meanTravelTime="-1.00" meanSpeed="12.38" meanSpeedRelative="0.89" duration="0"/>
    <step time="93.00" loaded="60" inserted="9" running="9" waiting="0" ended="0" arrived="0" collisions="0" teleports="0" halting="0" stopped="0" meanWaitingTime="0.00" meanTravelTime="-1.00" meanSpeed="11.27" meanSpeedRelative="0.81" duration="0"/>
    <step time="94.00" loaded="60" inserted="10" running="10" waiting="0" ended="0" arrived="0" collisions="0" teleports="0" halting="1" stopped="0" meanWaitingTime="0.00" meanTravelTime="-1.00" meanSpeed="9.61" meanSpeedRelative="0.69" duration="0"/>
    <step time="95.00" loaded="60" inserted="10" running="10" waiting="0" ended="0" arrived="0" collisions="0" teleports="0" halting="1" stopped="0" meanWaitingTime="0.00" meanTravelTime="-1.00" meanSpeed="9.64" meanSpeedRelative="0.69" duration="0"/>
    <step time="96.00" loaded="60" inserted="11" running="11" waiting="0" ended="0" arrived="0" collisions="0" teleports="0" halting="2" stopped="0" meanWaitingTime="0.00" meanTravelTime="-1.00" meanSpeed="9.09" meanSpeedRelative="0.65" duration="0"/>
    <step time="97.00" loaded="60" inserted="12" running="12" waiting="0" ended="0" arrived="0" collisions="0" teleports="0" halting="3" stopped="0" meanWaitingTime="0.00" meanTravelTime="-1.00" meanSpeed="9.10" meanSpeedRelative="0.66" duration="0"/>
    <step time="98.00" loaded="60" inserted="12" running="12" waiting="0" ended="0" arrived="0" collisions="0" teleports="0" halting="2" stopped="0" meanWaitingTime="0.00" meanTravelTime="-1.00" meanSpeed="9.74" meanSpeedRelative="0.70" duration="0"/>
    <step time="99.00" loaded="60" inserted="14" running="14" waiting="0" ended="0" arrived="0" collisions="0" teleports="0" halting="4" stopped="0" meanWaitingTime="0.00" meanTravelTime="-1.00" meanSpeed="8.75" meanSpeedRelative="0.63" duration="0"/>
    <step time="100.00" loaded="60" inserted="14" running="14" waiting="0" ended="0" arrived="0" collisions="0" teleports="0" halting="2" stopped="0" meanWaitingTime="0.00" meanTravelTime="-1.00" meanSpeed="9.77" meanSpeedRelative="0.70" duration="0"/>
    <step time="101.00" loaded="60" inserted="15" running="15" waiting="0" ended="0" arrived="0" collisions="0" teleports="0" halting="3" stopped="0" meanWaitingTime="0.00" meanTravelTime="-1.00" meanSpeed="9.21" meanSpeedRelative="0.66" duration="0"/>
    <step time="102.00" loaded="60" inserted="16" running="16" waiting="0" ended="0" arrived="0" collisions="0" teleports="0" halting="2" stopped="0" meanWaitingTime="0.00" meanTravelTime="-1.00" meanSpeed="9.64" meanSpeedRelative="0.69" duration="0"/>
    <step time="103.00" loaded="60" inserted="16" running="16" waiting="0" ended="0" arrived="0" collisions="0" teleports="0" halting="0" stopped="0" meanWaitingTime="0.00" meanTravelTime="-1.00" meanSpeed="10.84" meanSpeedRelative="0.78" duration="0"/>
    <step time="104.00" loaded="60" inserted="17" running="17" waiting="0" ended="0" arrived="0" collisions="0" teleports="0" halting="1" stopped="0" meanWaitingTime="0.00" meanTravelTime="-1.00" meanSpeed="11.60" meanSpeedRelative="0.84" duration="0"/>
    <step time="105.00" loaded="60" inserted="17" running="17" waiting="0" ended="0" arrived="0" collisions="0" teleports="0" halting="0" stopped="0" meanWaitingTime="0.00" meanTravelTime="-1.00" meanSpeed="12.04" meanSpeedRelative="0.87" duration="0"/>
    <step time="106.00" loaded="60" inserted="17" running="17" waiting="0" ended="0" arrived="0" collisions="0" teleports="0" halting="0" stopped="0" meanWaitingTime="0.00" meanTravelTime="-1.00" meanSpeed="12.60" meanSpeedRelative="0.91" duration="0"/>
    <step time="107.00" loaded="60" inserted="17" running="17" waiting="0" ended="0" arrived="0" collisions="0" teleports="0" halting="0" stopped="0" meanWaitingTime="0.00" meanTravelTime="-1.00" meanSpeed="12.98" meanSpeedRelative="0.93" duration="0"/>
    <step time="108.00" loaded="60" inserted="17" running="17" waiting="0" ended="0" arrived="0" collisions="0" teleports="0" halting="0" stopped="0" meanWaitingTime="0.00" meanTravelTime="-1.00" meanSpeed="13.15" meanSpeedRelative="0.95" duration="1"/>
    <step time="109.00" loaded="60" inserted="19" running="19" waiting="0" ended="0" arrived="0" collisions="0" teleports="0" halting="2" stopped="0" meanWaitingTime="0.00" meanTravelTime="-1.00" meanSpeed="11.40" meanSpeedRelative="0.82" duration="0"/>
    <step time="110.00" loaded="60" inserted="19" running="19" waiting="0" ended="0" arrived="0" collisions="0" teleports="0" halting="0" stopped="0" meanWaitingTime="0.00" meanTravelTime="-1.00" meanSpeed="11.68" meanSpeedRelative="0.84" duration="0"/>
    <step time="111.00" loaded="60" inserted="19" running="19" waiting="0" ended="0" arrived="0" collisions="0" teleports="0" halting="0" stopped="0" meanWaitingTime="0.00" meanTravelTime="-1.00" meanSpeed="12.23" meanSpeedRelative="0.88" duration="0"/>
    <step time="112.00" loaded="60" inserted="19" running="19" waiting="0" ended="0" arrived="0" collisions="0" teleports="0" halting="0" stopped="0" meanWaitingTime="0.00" meanTravelTime="-1.00" meanSpeed="12.59" meanSpeedRelative="0.91" duration="0"/>
    <step time="113.00" loaded="60" inserted="20" running="20" waiting="0" ended="0" arrived="0" collisions="0" teleports="0" halting="1" stopped="0" meanWaitingTime="0.00" meanTravelTime="-1.00" meanSpeed="11.39" meanSpeedRelative="0.82" duration="0"/>