<?xml version="1.0" encoding="UTF-8"?>

<!-- generated on 2023-07-26 15:06:24 by Eclipse SUMO sumo Version v1_17_0+1256-16eabe86c67
<configuration xmlns:xsi="http://www.w3.org/2001/XMLSchema-instance" xsi:noNamespaceSchemaLocation="http://sumo.dlr.de/xsd/sumoConfiguration.xsd">

    <input>
        <net-file value="./real_net/pasubio/pasubio_buslanes.net.xml"/>
        <route-files value="./real_net/pasubio/pasubio.rou.xml"/>
        <additional-files value="./real_net/pasubio/pasubio_vtypes.add.xml,./real_net/pasubio/pasubio_bus_stops.add.xml,./real_net/pasubio/pasubio_busses.rou.xml,./real_net/pasubio/pasubio_detectors.add.xml,./real_net/pasubio/pasubio_tls.add.xml"/>
    </input>

    <output>
        <tripinfo-output value="./real_net/pasubio/tripinfos.xml"/>
    </output>

    <report>
        <no-warnings value="true"/>
        <log value="./real_net/pasubio/sumo_log.txt"/>
        <no-step-log value="true"/>
    </report>

    <traci_server>
        <remote-port value="54837"/>
    </traci_server>

    <random_number>
        <random value="true"/>
    </random_number>

</configuration>
-->

<tripinfos xmlns:xsi="http://www.w3.org/2001/XMLSchema-instance" xsi:noNamespaceSchemaLocation="http://sumo.dlr.de/xsd/tripinfo_file.xsd">
    <tripinfo id="Prati_Capraia_10_0" depart="0.00" departLane="3[0]_0" departPos="0.00" departSpeed="0.00" departDelay="0.00" arrival="50.00" arrivalLane="10_0" arrivalPos="223.30" arrivalSpeed="16.49" duration="50.00" routeLength="409.63" waitingTime="15.00" waitingCount="1" stopTime="0.00" timeLoss="23.60" rerouteNo="0" devices="tripinfo_Prati_Capraia_10_0" vType="passenger2a" speedFactor="1.19" vaporized=""/>
    <tripinfo id="Prati_Capraia_10_1" depart="4.00" departLane="3[0]_0" departPos="0.00" departSpeed="0.00" departDelay="0.00" arrival="53.00" arrivalLane="10_0" arrivalPos="223.30" arrivalSpeed="13.51" duration="49.00" routeLength="409.63" waitingTime="9.00" waitingCount="1" stopTime="0.00" timeLoss="20.07" rerouteNo="0" devices="tripinfo_Prati_Capraia_10_1" vType="passenger3" speedFactor="1.05" vaporized=""/>
    <tripinfo id="Prati_Capraia_10_7" depart="34.00" departLane="3[0]_0" departPos="0.00" departSpeed="0.00" departDelay="0.00" arrival="69.00" arrivalLane="10_0" arrivalPos="223.30" arrivalSpeed="13.32" duration="35.00" routeLength="409.63" waitingTime="0.00" waitingCount="0" stopTime="0.00" timeLoss="5.15" rerouteNo="0" devices="tripinfo_Prati_Capraia_10_7" vType="passenger3" speedFactor="1.04" vaporized=""/>
    <tripinfo id="Prati_Capraia_100_3" depart="14.00" departLane="3[0]_0" departPos="0.00" departSpeed="0.00" departDelay="0.00" arrival="72.00" arrivalLane="3[1]b_0" arrivalPos="238.77" arrivalSpeed="13.18" duration="58.00" routeLength="624.48" waitingTime="0.00" waitingCount="0" stopTime="0.00" timeLoss="10.79" rerouteNo="0" devices="tripinfo_Prati_Capraia_100_3" vType="passenger3" speedFactor="0.96" vaporized=""/>
    <tripinfo id="Prati_Capraia_100_4" depart="19.00" departLane="3[0]_1" departPos="0.00" departSpeed="0.00" departDelay="0.00" arrival="73.00" arrivalLane="3[1]b_1" arrivalPos="238.77" arrivalSpeed="13.55" duration="54.00" routeLength="624.48" waitingTime="0.00" waitingCount="0" stopTime="0.00" timeLoss="8.88" rerouteNo="0" devices="tripinfo_Prati_Capraia_100_4" vType="passenger1" speedFactor="1.02" vaporized=""/>
    <tripinfo id="Prati_Capraia_100_2" depart="9.00" departLane="3[0]_1" departPos="0.00" departSpeed="0.00" departDelay="0.00" arrival="75.00" arrivalLane="3[1]b_0" arrivalPos="238.77" arrivalSpeed="11.91" duration="66.00" routeLength="624.48" waitingTime="5.00" waitingCount="1" stopTime="0.00" timeLoss="17.14" rerouteNo="0" devices="tripinfo_Prati_Capraia_100_2" vType="passenger2a" speedFactor="0.93" vaporized=""/>
    <tripinfo id="Prati_Capraia_100_5" depart="24.00" departLane="3[0]_0" departPos="0.00" departSpeed="0.00" departDelay="0.00" arrival="80.00" arrivalLane="3[1]b_0" arrivalPos="238.77" arrivalSpeed="11.88" duration="56.00" routeLength="624.48" waitingTime="0.00" waitingCount="0" stopTime="0.00" timeLoss="4.80" rerouteNo="0" devices="tripinfo_Prati_Capraia_100_5" vType="passenger4" speedFactor="0.89" vaporized=""/>
    <tripinfo id="Pertini_20_0" depart="0.00" departLane="63[0]_2" departPos="0.00" departSpeed="0.00" departDelay="0.00" arrival="99.00" arrivalLane="4[1][1][1]_0" arrivalPos="170.54" arrivalSpeed="14.02" duration="99.00" routeLength="882.71" waitingTime="26.00" waitingCount="1" stopTime="0.00" timeLoss="36.67" rerouteNo="0" devices="tripinfo_Pertini_20_0" vType="passenger2a" speedFactor="1.03" vaporized=""/>
    <tripinfo id="Pertini_20_2" depart="4.00" departLane="63[0]_1" departPos="0.00" departSpeed="0.00" departDelay="0.00" arrival="99.00" arrivalLane="4[1][1][1]_1" arrivalPos="170.54" arrivalSpeed="13.45" duration="95.00" routeLength="895.82" waitingTime="19.00" waitingCount="1" stopTime="0.00" timeLoss="31.92" rerouteNo="0" devices="tripinfo_Pertini_20_2" vType="passenger2a" speedFactor="1.02" vaporized=""/>
    <tripinfo id="Pertini_20_1" depart="2.00" departLane="63[0]_2" departPos="0.00" departSpeed="0.00" departDelay="0.00" arrival="101.00" arrivalLane="4[1][1][1]_0" arrivalPos="170.54" arrivalSpeed="13.05" duration="99.00" routeLength="882.71" waitingTime="22.00" waitingCount="1" stopTime="0.00" timeLoss="35.59" rerouteNo="0" devices="tripinfo_Pertini_20_1" vType="passenger4" speedFactor="1.01" vaporized=""/>
    <tripinfo id="Certosa_9_0" depart="0.00" departLane="22[0]_1" departPos="0.00" departSpeed="0.00" departDelay="0.00" arrival="102.00" arrivalLane="2[1][1][1]b_1" arrivalPos="324.74" arrivalSpeed="10.43" duration="102.00" routeLength="602.57" waitingTime="38.00" waitingCount="1" stopTime="0.00" timeLoss="48.82" rerouteNo="0" devices="tripinfo_Certosa_9_0" vType="passenger2a" speedFactor="0.83" vaporized=""/>
    <tripinfo id="Montefiorino_90_1" depart="4.00" departLane="43_0" departPos="0.00" departSpeed="0.00" departDelay="0.00" arrival="102.00" arrivalLane="2[1][1][1]b_0" arrivalPos="324.74" arrivalSpeed="12.97" duration="98.00" routeLength="1204.75" waitingTime="0.00" waitingCount="0" stopTime="0.00" timeLoss="10.13" rerouteNo="0" devices="tripinfo_Montefiorino_90_1" vType="passenger1" speedFactor="1.00" vaporized=""/>
    <tripinfo id="Pertini_20_7" depart="15.00" departLane="63[0]_2" departPos="0.00" departSpeed="0.00" departDelay="0.00" arrival="102.00" arrivalLane="4[1][1][1]_1" arrivalPos="170.54" arrivalSpeed="13.68" duration="87.00" routeLength="895.82" waitingTime="11.00" waitingCount="1" stopTime="0.00" timeLoss="22.30" rerouteNo="0" devices="tripinfo_Pertini_20_7" vType="passenger1" speedFactor="1.01" vaporized=""/>
    <tripinfo id="Pertini_20_9" depart="19.00" departLane="63[0]_1" departPos="0.00" departSpeed="0.00" departDelay="0.00" arrival="103.00" arrivalLane="4[1][1][1]_1" arrivalPos="170.54" arrivalSpeed="14.10" duration="84.00" routeLength="895.82" waitingTime="8.00" waitingCount="1" stopTime="0.00" timeLoss="22.30" rerouteNo="0" devices="tripinfo_Pertini_20_9" vType="passenger1" speedFactor="1.05" vaporized=""/>
    <tripinfo id="Pertini_20_10" depart="21.00" departLane="63[0]_2" departPos="0.00" departSpeed="0.00" departDelay="0.00" arrival="103.00" arrivalLane="4[1][1][1]_0" arrivalPos="170.54" arrivalSpeed="15.59" duration="82.00" routeLength="882.71" waitingTime="11.00" waitingCount="1" stopTime="0.00" timeLoss="28.79" rerouteNo="0" devices="tripinfo_Pertini_20_10" vType="passenger2a" speedFactor="1.21" vaporized=""/>
    <tripinfo id="Pertini_20_11" depart="23.00" departLane="63[0]_1" departPos="0.00" departSpeed="0.00" departDelay="0.00" arrival="106.00" arrivalLane="4[1][1][1]_1" arrivalPos="170.54" arrivalSpeed="12.33" duration="83.00" routeLength="895.82" waitingTime="3.00" waitingCount="1" stopTime="0.00" timeLoss="16.23" rerouteNo="0" devices="tripinfo_Pertini_20_11" vType="passenger1" speedFactor="0.98" vaporized=""/>
    <tripinfo id="Pertini_20_15" depart="32.00" departLane="63[0]_2" departPos="0.00" departSpeed="0.00" departDelay="0.00" arrival="107.00" arrivalLane="4[1][1][1]_1" arrivalPos="170.54" arrivalSpeed="15.11" duration="75.00" routeLength="882.71" waitingTime="0.00" waitingCount="0" stopTime="0.00" timeLoss="17.06" rerouteNo="0" devices="tripinfo_Pertini_20_15" vType="passenger2a" speedFactor="1.10" vaporized=""/>
    <tripinfo id="Montefiorino_90_5" depart="20.00" departLane="43_1" departPos="0.00" departSpeed="0.00" departDelay="0.00" arrival="109.00" arrivalLane="2[1][1][1]b_0" arrivalPos="324.74" arrivalSpeed="14.08" duration="89.00" routeLength="1198.14" waitingTime="0.00" waitingCount="0" stopTime="0.00" timeLoss="10.70" rerouteNo="0" devices="tripinfo_Montefiorino_90_5" vType="passenger2a" speedFactor="1.12" vaporized=""/>
    <tripinfo id="Pertini_20_12" depart="25.00" departLane="63[0]_2" departPos="0.00" departSpeed="0.00" departDelay="0.00" arrival="109.00" arrivalLane="4[1][1][1]_0" arrivalPos="170.54" arrivalSpeed="12.92" duration="84.00" routeLength="895.82" waitingTime="1.00" waitingCount="1" stopTime="0.00" timeLoss="14.57" rerouteNo="0" devices="tripinfo_Pertini_20_12" vType="passenger1" speedFactor="0.93" vaporized=""/>
    <tripinfo id="Pertini_20_14" depart="30.00" departLane="63[0]_1" departPos="0.00" departSpeed="0.00" departDelay="0.00" arrival="109.00" arrivalLane="4[1][1][1]_1" arrivalPos="170.54" arrivalSpeed="14.23" duration="79.00" routeLength="895.82" waitingTime="0.00" waitingCount="0" stopTime="0.00" timeLoss="16.70" rerouteNo="0" devices="tripinfo_Pertini_20_14" vType="passenger2a" speedFactor="1.04" vaporized=""/>
    <tripinfo id="Pertini_20_17" depart="36.00" departLane="63[0]_2" departPos="0.00" departSpeed="0.00" departDelay="0.00" arrival="110.00" arrivalLane="4[1][1][1]_1" arrivalPos="170.54" arrivalSpeed="15.10" duration="74.00" routeLength="882.71" waitingTime="0.00" waitingCount="0" stopTime="0.00" timeLoss="17.50" rerouteNo="0" devices="tripinfo_Pertini_20_17" vType="passenger2b" speedFactor="1.13" vaporized=""/>
    <tripinfo id="Pertini_20_16" depart="34.00" departLane="63[0]_1" departPos="0.00" departSpeed="0.00" departDelay="0.00" arrival="112.00" arrivalLane="4[1][1][1]_0" arrivalPos="170.54" arrivalSpeed="12.19" duration="78.00" routeLength="895.82" waitingTime="0.00" waitingCount="0" stopTime="0.00" timeLoss="6.41" rerouteNo="0" devices="tripinfo_Pertini_20_16" vType="passenger5" speedFactor="0.91" vaporized=""/>
    <tripinfo id="Pertini_20_18" depart="38.00" departLane="63[0]_1" departPos="0.00" departSpeed="0.00" departDelay="0.00" arrival="112.00" arrivalLane="4[1][1][1]_1" arrivalPos="170.54" arrivalSpeed="14.64" duration="74.00" routeLength="882.71" waitingTime="0.00" waitingCount="0" stopTime="0.00" timeLoss="13.66" rerouteNo="0" devices="tripinfo_Pertini_20_18" vType="passenger1" speedFactor="1.06" vaporized=""/>
    <tripinfo id="Pertini_20_19" depart="40.00" departLane="63[0]_2" departPos="0.00" departSpeed="0.00" departDelay="0.00" arrival="113.00" arrivalLane="4[1][1][1]_0" arrivalPos="170.54" arrivalSpeed="13.72" duration="73.00" routeLength="895.82" waitingTime="0.00" waitingCount="0" stopTime="0.00" timeLoss="8.58" rerouteNo="0" devices="tripinfo_Pertini_20_19" vType="passenger2b" speedFactor="1.01" vaporized=""/>
    <tripinfo id="Montefiorino_90_2" depart="8.00" departLane="43_1" departPos="0.00" departSpeed="0.00" departDelay="0.00" arrival="115.00" arrivalLane="2[1][1][1]b_0" arrivalPos="324.74" arrivalSpeed="13.16" duration="107.00" routeLength="1198.14" waitingTime="6.00" waitingCount="1" stopTime="0.00" timeLoss="18.29" rerouteNo="0" devices="tripinfo_Montefiorino_90_2" vType="passenger1" speedFactor="0.99" vaporized=""/>
    <tripinfo id="Montefiorino_90_6" depart="24.00" departLane="43_0" departPos="0.00" departSpeed="0.00" departDelay="0.00" arrival="116.00" arrivalLane="2[1][1][1]b_1" arrivalPos="324.74" arrivalSpeed="14.05" duration="92.00" routeLength="1198.14" waitingTime="0.00" waitingCount="0" stopTime="0.00" timeLoss="7.60" rerouteNo="0" devices="tripinfo_Montefiorino_90_6" vType="passenger1" speedFactor="1.04" vaporized=""/>
    <tripinfo id="Pertini_20_21" depart="45.00" departLane="63[0]_1" departPos="0.00" departSpeed="0.00" departDelay="0.00" arrival="118.00" arrivalLane="4[1][1][1]_0" arrivalPos="170.54" arrivalSpeed="13.20" duration="73.00" routeLength="895.82" waitingTime="0.00" waitingCount="0" stopTime="0.00" timeLoss="5.54" rerouteNo="0" devices="tripinfo_Pertini_20_21" vType="passenger1" speedFactor="0.97" vaporized=""/>
    <tripinfo id="Montefiorino_80_0" depart="0.00" departLane="43_1" departPos="0.00" departSpeed="0.00" departDelay="0.00" arrival="119.00" arrivalLane="21_1" arrivalPos="89.26" arrivalSpeed="9.29" duration="119.00" routeLength="960.77" waitingTime="9.00" waitingCount="2" stopTime="0.00" timeLoss="25.50" rerouteNo="0" devices="tripinfo_Montefiorino_80_0" vType="passenger4" speedFactor="0.75" vaporized=""/>
    <tripinfo id="Pertini_10_20" depart="43.00" departLane="63[0]_2" departPos="0.00" departSpeed="0.00" departDelay="0.00" arrival="119.00" arrivalLane="10_0" arrivalPos="223.30" arrivalSpeed="13.34" duration="76.00" routeLength="935.05" waitingTime="0.00" waitingCount="0" stopTime="0.00" timeLoss="7.48" rerouteNo="0" devices="tripinfo_Pertini_10_20" vType="passenger2a" speedFactor="1.00" vaporized=""/>
    <tripinfo id="Pertini_20_25" depart="53.00" departLane="63[0]_1" departPos="0.00" departSpeed="0.00" departDelay="0.00" arrival="119.00" arrivalLane="4[1][1][1]_1" arrivalPos="170.54" arrivalSpeed="14.63" duration="66.00" routeLength="895.82" waitingTime="0.00" waitingCount="0" stopTime="0.00" timeLoss="6.25" rerouteNo="0" devices="tripinfo_Pertini_20_25" vType="passenger1" speedFactor="1.09" vaporized=""/>
    <tripinfo id="Prati_Capraia_100_8" depart="38.00" departLane="3[0]_1" departPos="0.00" departSpeed="0.00" departDelay="0.00" arrival="121.00" arrivalLane="3[1]b_0" arrivalPos="238.77" arrivalSpeed="12.97" duration="83.00" routeLength="624.48" waitingTime="25.00" waitingCount="1" stopTime="0.00" timeLoss="34.46" rerouteNo="0" devices="tripinfo_Prati_Capraia_100_8" vType="passenger2b" speedFactor="0.94" vaporized=""/>
    <tripinfo id="Prati_Capraia_100_11" depart="53.00" departLane="3[0]_0" departPos="0.00" departSpeed="0.00" departDelay="0.00" arrival="122.00" arrivalLane="3[1]b_0" arrivalPos="238.77" arrivalSpeed="15.07" duration="69.00" routeLength="624.48" waitingTime="12.00" waitingCount="1" stopTime="0.00" timeLoss="30.46" rerouteNo="0" devices="tripinfo_Prati_Capraia_100_11" vType="passenger1" speedFactor="1.17" vaporized=""/>
    <tripinfo id="Prati_Capraia_100_9" depart="43.00" departLane="3[0]_0" departPos="0.00" departSpeed="0.00" departDelay="0.00" arrival="123.00" arrivalLane="3[1]b_1" arrivalPos="238.77" arrivalSpeed="11.60" duration="80.00" routeLength="624.48" waitingTime="18.00" waitingCount="1" stopTime="0.00" timeLoss="28.78" rerouteNo="0" devices="tripinfo_Prati_Capraia_100_9" vType="passenger1" speedFactor="0.89" vaporized=""/>
    <tripinfo id="Pertini_20_22" depart="47.00" departLane="63[0]_2" departPos="0.00" departSpeed="0.00" departDelay="0.00" arrival="124.00" arrivalLane="4[1][1][1]_0" arrivalPos="170.54" arrivalSpeed="11.55" duration="77.00" routeLength="895.82" waitingTime="0.00" waitingCount="0" stopTime="0.00" timeLoss="5.84" rerouteNo="0" devices="tripinfo_Pertini_20_22" vType="passenger2a" speedFactor="0.92" vaporized=""/>
    <tripinfo id="Prati_Capraia_100_10" depart="48.00" departLane="3[0]_1" departPos="0.00" departSpeed="0.00" departDelay="0.00" arrival="124.00" arrivalLane="3[1]b_1" arrivalPos="238.77" arrivalSpeed="13.75" duration="76.00" routeLength="624.48" waitingTime="17.00" waitingCount="1" stopTime="0.00" timeLoss="35.26" rerouteNo="0" devices="tripinfo_Prati_Capraia_100_10" vType="passenger1" speedFactor="1.11" vaporized=""/>
    <tripinfo id="Prati_Capraia_100_12" depart="58.00" departLane="3[0]_1" departPos="0.00" departSpeed="0.00" departDelay="0.00" arrival="124.00" arrivalLane="3[1]b_0" arrivalPos="238.77" arrivalSpeed="13.58" duration="66.00" routeLength="624.48" waitingTime="7.00" waitingCount="1" stopTime="0.00" timeLoss="20.20" rerouteNo="0" devices="tripinfo_Prati_Capraia_100_12" vType="passenger1" speedFactor="0.99" vaporized=""/>
    <tripinfo id="Montefiorino_60_7" depart="28.00" departLane="43_0" departPos="0.00" departSpeed="0.00" departDelay="0.00" arrival="126.00" arrivalLane="40[1]_0" arrivalPos="496.68" arrivalSpeed="14.12" duration="98.00" routeLength="1021.91" waitingTime="17.00" waitingCount="1" stopTime="0.00" timeLoss="29.70" rerouteNo="0" devices="tripinfo_Montefiorino_60_7" vType="passenger3" speedFactor="1.09" vaporized=""/>
    <tripinfo id="Prati_Capraia_100_13" depart="63.00" departLane="3[0]_0" departPos="0.00" departSpeed="0.00" departDelay="0.00" arrival="126.00" arrivalLane="3[1]b_1" arrivalPos="238.77" arrivalSpeed="14.33" duration="63.00" routeLength="624.48" waitingTime="2.00" waitingCount="1" stopTime="0.00" timeLoss="21.23" rerouteNo="0" devices="tripinfo_Prati_Capraia_100_13" vType="passenger3" speedFactor="1.09" vaporized=""/>
    <tripinfo id="Pertini_20_26" depart="55.00" departLane="63[0]_2" departPos="0.00" departSpeed="0.00" departDelay="0.00" arrival="128.00" arrivalLane="4[1][1][1]_0" arrivalPos="170.54" arrivalSpeed="12.37" duration="73.00" routeLength="895.82" waitingTime="0.00" waitingCount="0" stopTime="0.00" timeLoss="6.33" rerouteNo="0" devices="tripinfo_Pertini_20_26" vType="passenger1" speedFactor="0.98" vaporized=""/>
    <tripinfo id="Pertini_20_31" depart="66.00" departLane="63[0]_2" departPos="0.00" departSpeed="0.00" departDelay="0.00" arrival="130.00" arrivalLane="4[1][1][1]_1" arrivalPos="170.54" arrivalSpeed="14.11" duration="64.00" routeLength="882.71" waitingTime="0.00" waitingCount="0" stopTime="0.00" timeLoss="6.23" rerouteNo="0" devices="tripinfo_Pertini_20_31" vType="passenger1" speedFactor="1.11" vaporized=""/>
    <tripinfo id="Prati_Capraia_100_14" depart="68.00" departLane="3[0]_1" departPos="0.00" departSpeed="0.00" departDelay="0.00" arrival="130.00" arrivalLane="3[1]b_0" arrivalPos="238.77" arrivalSpeed="10.52" duration="62.00" routeLength="624.48" waitingTime="0.00" waitingCount="0" stopTime="0.00" timeLoss="9.51" rerouteNo="0" devices="tripinfo_Prati_Capraia_100_14" vType="passenger2a" speedFactor="0.86" vaporized=""/>
    <tripinfo id="Sabotino_9_1" depart="9.00" departLane="41_0" departPos="0.00" departSpeed="0.00" departDelay="0.00" arrival="131.00" arrivalLane="2[1][1][1]b_0" arrivalPos="324.74" arrivalSpeed="13.42" duration="122.00" routeLength="1123.23" waitingTime="31.00" waitingCount="1" stopTime="0.00" timeLoss="43.90" rerouteNo="0" devices="tripinfo_Sabotino_9_1" vType="passenger1" speedFactor="1.04" vaporized=""/>
    <tripinfo id="Pertini_20_27" depart="58.00" departLane="63[0]_1" departPos="0.00" departSpeed="0.00" departDelay="0.00" arrival="131.00" arrivalLane="4[1][1][1]_0" arrivalPos="170.54" arrivalSpeed="12.60" duration="73.00" routeLength="895.82" waitingTime="0.00" waitingCount="0" stopTime="0.00" timeLoss="6.32" rerouteNo="0" devices="tripinfo_Pertini_20_27" vType="passenger1" speedFactor="0.97" vaporized=""/>
    <tripinfo id="Sabotino_9_5" depart="45.00" departLane="41_0" departPos="0.00" departSpeed="0.00" departDelay="0.00" arrival="132.00" arrivalLane="2[1][1][1]b_1" arrivalPos="324.74" arrivalSpeed="14.53" duration="87.00" routeLength="1123.23" waitingTime="0.00" waitingCount="0" stopTime="0.00" timeLoss="11.76" rerouteNo="0" devices="tripinfo_Sabotino_9_5" vType="passenger2a" speedFactor="1.08" vaporized=""/>
    <tripinfo id="Sabotino_9_3" depart="27.00" departLane="41_0" departPos="0.00" departSpeed="0.00" departDelay="0.00" arrival="135.00" arrivalLane="2[1][1][1]b_0" arrivalPos="324.74" arrivalSpeed="13.01" duration="108.00" routeLength="1123.23" waitingTime="14.00" waitingCount="1" stopTime="0.00" timeLoss="27.26" rerouteNo="0" devices="tripinfo_Sabotino_9_3" vType="passenger1" speedFactor="1.00" vaporized=""/>
    <tripinfo id="Pertini_20_28" depart="60.00" departLane="63[0]_2" departPos="0.00" departSpeed="0.00" departDelay="0.00" arrival="135.00" arrivalLane="4[1][1][1]_0" arrivalPos="170.54" arrivalSpeed="12.79" duration="75.00" routeLength="895.82" waitingTime="0.00" waitingCount="0" stopTime="0.00" timeLoss="6.56" rerouteNo="0" devices="tripinfo_Pertini_20_28" vType="passenger1" speedFactor="0.94" vaporized=""/>
    <tripinfo id="Malvasia_70_0" depart="4.00" departLane="52_0" departPos="0.00" departSpeed="0.00" departDelay="4.00" arrival="137.00" arrivalLane="44_0" arrivalPos="122.23" arrivalSpeed="11.98" duration="133.00" routeLength="1269.66" waitingTime="9.00" waitingCount="2" stopTime="0.00" timeLoss="33.25" rerouteNo="0" devices="tripinfo_Malvasia_70_0" vType="passenger1" speedFactor="0.93" vaporized=""/>
    <tripinfo id="Malvasia_70_1" depart="7.00" departLane="52_0" departPos="0.00" departSpeed="0.00" departDelay="3.00" arrival="137.00" arrivalLane="44_1" arrivalPos="122.23" arrivalSpeed="13.04" duration="130.00" routeLength="1269.66" waitingTime="5.00" waitingCount="2" stopTime="0.00" timeLoss="39.17" rerouteNo="0" devices="tripinfo_Malvasia_70_1" vType="passenger3" speedFactor="1.03" vaporized=""/>
    <tripinfo id="Borgo_20_3" depart="18.00" departLane="6_1" departPos="0.00" departSpeed="0.00" departDelay="0.00" arrival="138.00" arrivalLane="4[1][1][1]_1" arrivalPos="170.54" arrivalSpeed="15.56" duration="120.00" routeLength="551.60" waitingTime="66.00" waitingCount="2" stopTime="0.00" timeLoss="83.54" rerouteNo="0" devices="tripinfo_Borgo_20_3" vType="passenger2b" speedFactor="1.12" vaporized=""/>
    <tripinfo id="Montefiorino_100_3" depart="12.00" departLane="43_0" departPos="0.00" departSpeed="0.00" departDelay="0.00" arrival="139.00" arrivalLane="15_0" arrivalPos="315.83" arrivalSpeed="11.87" duration="127.00" routeLength="1342.76" waitingTime="2.00" waitingCount="1" stopTime="0.00" timeLoss="18.41" rerouteNo="0" devices="tripinfo_Montefiorino_100_3" vType="passenger1" speedFactor="0.91" vaporized=""/>
    <tripinfo id="Borgo_20_4" depart="24.00" departLane="6_1" departPos="0.00" departSpeed="0.00" departDelay="0.00" arrival="141.00" arrivalLane="4[1][1][1]_1" arrivalPos="170.54" arrivalSpeed="13.41" duration="117.00" routeLength="551.60" waitingTime="59.00" waitingCount="2" stopTime="0.00" timeLoss="76.66" rerouteNo="0" devices="tripinfo_Borgo_20_4" vType="passenger3" speedFactor="1.01" vaporized=""/>
    <tripinfo id="Sabotino_9_2" depart="18.00" departLane="41_0" departPos="0.00" departSpeed="0.00" departDelay="0.00" arrival="145.00" arrivalLane="2[1][1][1]b_0" arrivalPos="324.74" arrivalSpeed="12.46" duration="127.00" routeLength="1123.23" waitingTime="21.00" waitingCount="1" stopTime="0.00" timeLoss="36.28" rerouteNo="0" devices="tripinfo_Sabotino_9_2" vType="passenger2a" speedFactor="0.90" vaporized=""/>
    <tripinfo id="Borgo_20_6" depart="36.00" departLane="6_1" departPos="0.00" departSpeed="0.00" departDelay="0.00" arrival="145.00" arrivalLane="4[1][1][1]_1" arrivalPos="170.54" arrivalSpeed="12.42" duration="109.00" routeLength="551.60" waitingTime="48.00" waitingCount="2" stopTime="0.00" timeLoss="63.33" rerouteNo="0" devices="tripinfo_Borgo_20_6" vType="passenger3" speedFactor="0.90" vaporized=""/>
    <tripinfo id="Borgo_20_7" depart="42.00" departLane="6_1" departPos="0.00" departSpeed="0.00" departDelay="0.00" arrival="146.00" arrivalLane="4[1][1][1]_1" arrivalPos="170.54" arrivalSpeed="12.62" duration="104.00" routeLength="551.60" waitingTime="45.00" waitingCount="2" stopTime="0.00" timeLoss="64.59" rerouteNo="0" devices="tripinfo_Borgo_20_7" vType="passenger1" speedFactor="1.03" vaporized=""/>
    <tripinfo id="Sabotino_9_4" depart="36.00" departLane="41_0" departPos="0.00" departSpeed="0.00" departDelay="0.00" arrival="151.00" arrivalLane="2[1][1][1]b_0" arrivalPos="324.74" arrivalSpeed="10.55" duration="115.00" routeLength="1123.23" waitingTime="4.00" waitingCount="1" stopTime="0.00" timeLoss="18.81" rerouteNo="0" devices="tripinfo_Sabotino_9_4" vType="passenger2a" speedFactor="0.85" vaporized=""/>
    <tripinfo id="Sabotino_9_0" depart="0.00" departLane="41_0" departPos="0.00" departSpeed="0.00" departDelay="0.00" arrival="153.00" arrivalLane="2[1][1][1]b_0" arrivalPos="324.74" arrivalSpeed="9.96" duration="153.00" routeLength="1123.23" waitingTime="37.00" waitingCount="1" stopTime="0.00" timeLoss="49.81" rerouteNo="0" devices="tripinfo_Sabotino_9_0" vType="passenger2a" speedFactor="0.79" vaporized=""/>
    <tripinfo id="Nigrisoli_50_6" depart="37.00" departLane="65_0" departPos="0.00" departSpeed="0.00" departDelay="0.00" arrival="153.00" arrivalLane="35[1][1][1][1]_0" arrivalPos="257.67" arrivalSpeed="12.87" duration="116.00" routeLength="1161.06" waitingTime="12.00" waitingCount="2" stopTime="0.00" timeLoss="31.75" rerouteNo="0" devices="tripinfo_Nigrisoli_50_6" vType="ignoring1" speedFactor="1.00" vaporized=""/>
    <tripinfo id="Borgo_100_0" depart="0.00" departLane="6_0" departPos="0.00" departSpeed="0.00" departDelay="0.00" arrival="155.00" arrivalLane="3[1]b_0" arrivalPos="238.77" arrivalSpeed="14.54" duration="155.00" routeLength="797.07" waitingTime="90.00" waitingCount="1" stopTime="0.00" timeLoss="101.26" rerouteNo="0" devices="tripinfo_Borgo_100_0" vType="passenger2a" speedFactor="1.09" vaporized=""/>
    <tripinfo id="Borgo_100_2" depart="12.00" departLane="6_0" departPos="0.00" departSpeed="0.00" departDelay="0.00" arrival="158.00" arrivalLane="3[1]b_0" arrivalPos="238.77" arrivalSpeed="13.50" duration="146.00" routeLength="797.07" waitingTime="73.00" waitingCount="2" stopTime="0.00" timeLoss="89.26" rerouteNo="0" devices="tripinfo_Borgo_100_2" vType="passenger1" speedFactor="1.02" vaporized=""/>
    <tripinfo id="Prati_Capraia_30_6" depart="29.00" departLane="3[0]_1" departPos="0.00" departSpeed="0.00" departDelay="0.00" arrival="162.00" arrivalLane="70_0" arrivalPos="59.87" arrivalSpeed="13.53" duration="133.00" routeLength="802.85" waitingTime="45.00" waitingCount="3" stopTime="0.00" timeLoss="73.64" rerouteNo="0" devices="tripinfo_Prati_Capraia_30_6" vType="ignoring2a" speedFactor="1.00" vaporized=""/>
    <tripinfo id="Certosa_9_3" depart="109.00" departLane="22[0]_1" departPos="0.00" departSpeed="0.00" departDelay="0.00" arrival="163.00" arrivalLane="2[1][1][1]b_1" arrivalPos="324.74" arrivalSpeed="11.95" duration="54.00" routeLength="602.57" waitingTime="0.00" waitingCount="0" stopTime="0.00" timeLoss="6.36" rerouteNo="0" devices="tripinfo_Certosa_9_3" vType="passenger2b" speedFactor="0.93" vaporized=""/>
    <tripinfo id="Pertini_20_35" depart="75.00" departLane="63[0]_2" departPos="0.00" departSpeed="0.00" departDelay="0.00" arrival="169.00" arrivalLane="4[1][1][1]_0" arrivalPos="170.54" arrivalSpeed="13.09" duration="94.00" routeLength="882.71" waitingTime="21.00" waitingCount="1" stopTime="0.00" timeLoss="32.25" rerouteNo="0" devices="tripinfo_Pertini_20_35" vType="passenger2b" speedFactor="1.03" vaporized=""/>
    <tripinfo id="Borgo_100_8" depart="48.00" departLane="6_0" departPos="0.00" departSpeed="0.00" departDelay="0.00" arrival="171.00" arrivalLane="3[1]b_0" arrivalPos="238.77" arrivalSpeed="10.84" duration="123.00" routeLength="797.07" waitingTime="38.00" waitingCount="1" stopTime="0.00" timeLoss="51.25" rerouteNo="0" devices="tripinfo_Borgo_100_8" vType="passenger4" speedFactor="0.81" vaporized=""/>
    <tripinfo id="Pertini_20_30" depart="64.00" departLane="63[0]_1" departPos="0.00" departSpeed="0.00" departDelay="0.00" arrival="172.00" arrivalLane="4[1][1][1]_0" arrivalPos="170.54" arrivalSpeed="11.81" duration="108.00" routeLength="895.82" waitingTime="22.00" waitingCount="1" stopTime="0.00" timeLoss="34.08" rerouteNo="0" devices="tripinfo_Pertini_20_30" vType="passenger1" speedFactor="0.88" vaporized=""/>
    <tripinfo id="Pertini_20_37" depart="79.00" departLane="63[0]_2" departPos="0.00" departSpeed="0.00" departDelay="0.00" arrival="173.00" arrivalLane="4[1][1][1]_0" arrivalPos="170.54" arrivalSpeed="12.28" duration="94.00" routeLength="882.71" waitingTime="13.00" waitingCount="1" stopTime="0.00" timeLoss="26.87" rerouteNo="0" devices="tripinfo_Pertini_20_37" vType="passenger1" speedFactor="0.95" vaporized=""/>
    <tripinfo id="Prati_Capraia_10_19" depart="92.00" departLane="3[0]_0" departPos="0.00" departSpeed="0.00" departDelay="0.00" arrival="174.00" arrivalLane="10_0" arrivalPos="223.30" arrivalSpeed="15.81" duration="82.00" routeLength="409.63" waitingTime="45.00" waitingCount="1" stopTime="0.00" timeLoss="55.36" rerouteNo="0" devices="tripinfo_Prati_Capraia_10_19" vType="passenger3" speedFactor="1.15" vaporized=""/>
    <tripinfo id="Pertini_20_36" depart="77.00" departLane="63[0]_1" departPos="0.00" departSpeed="0.00" departDelay="0.00" arrival="176.00" arrivalLane="4[1][1][1]_0" arrivalPos="170.54" arrivalSpeed="10.65" duration="99.00" routeLength="895.82" waitingTime="10.00" waitingCount="1" stopTime="0.00" timeLoss="23.28" rerouteNo="0" devices="tripinfo_Pertini_20_36" vType="passenger2b" speedFactor="0.86" vaporized=""/>
    <tripinfo id="Pertini_20_39" depart="83.00" departLane="63[0]_1" departPos="0.00" departSpeed="0.00" departDelay="0.00" arrival="177.00" arrivalLane="4[1][1][1]_0" arrivalPos="170.54" arrivalSpeed="12.67" duration="94.00" routeLength="895.82" waitingTime="9.00" waitingCount="1" stopTime="0.00" timeLoss="25.82" rerouteNo="0" devices="tripinfo_Pertini_20_39" vType="passenger1" speedFactor="0.95" vaporized=""/>
    <tripinfo id="Prati_Capraia_10_21" depart="102.00" departLane="3[0]_0" departPos="0.00" departSpeed="0.00" departDelay="0.00" arrival="179.00" arrivalLane="10_0" arrivalPos="223.30" arrivalSpeed="12.84" duration="77.00" routeLength="409.63" waitingTime="35.00" waitingCount="1" stopTime="0.00" timeLoss="45.72" rerouteNo="0" devices="tripinfo_Prati_Capraia_10_21" vType="passenger1" speedFactor="0.98" vaporized=""/>