<?xml version="1.0" encoding="UTF-8"?>

<!-- generated on 2024-03-20 08:11:29 by Eclipse SUMO libsumo Version 1.19.0
<configuration xmlns:xsi="http://www.w3.org/2001/XMLSchema-instance" xsi:noNamespaceSchemaLocation="http://sumo.dlr.de/xsd/libsumoConfiguration.xsd">

    <input>
        <net-file value="./nets/3x3/network.net.xml"/>
        <route-files value="./nets/3x3/generated_route.rou.xml"/>
    </input>

    <output>
        <queue-output value="./DDQN/runs/3x3/run_9/QueueInfo/episode_2"/>
        <summary-output value="./DDQN/runs/3x3/run_9/Summary/episode_2"/>
        <tripinfo-output value="./DDQN/runs/3x3/run_9/VehicleInfo/episode_2"/>
    </output>

    <processing>
        <waiting-time-memory value="10000"/>
    </processing>

    <report>
        <no-warnings value="true"/>
        <log value="./nets/3x3/sumo_log.txt"/>
        <no-step-log value="true"/>
    </report>

    <emissions>
        <phemlight-path value="./nets/3x3/./PHEMlight/"/>
    </emissions>

    <random_number>
        <random value="true"/>
    </random_number>

</configuration>
-->

<tripinfos xmlns:xsi="http://www.w3.org/2001/XMLSchema-instance" xsi:noNamespaceSchemaLocation="http://sumo.dlr.de/xsd/tripinfo_file.xsd">
    <tripinfo id="1" depart="24.00" departLane="northLeft___intersectionNW_0" departPos="5.10" departSpeed="0.00" departDelay="0.00" arrival="164.00" arrivalLane="intersectionNE___intersectionE_0" arrivalPos="292.00" arrivalSpeed="5.71" duration="140.00" routeLength="1200.52" waitingTime="34.00" waitingCount="2" stopTime="0.00" timeLoss="51.57" rerouteNo="0" devices="tripinfo_1" vType="type1" speedFactor="0.98" vaporized=""/>
    <tripinfo id="14" depart="138.00" departLane="intersectionN___intersectionNE_0" departPos="5.10" departSpeed="0.00" departDelay="0.00" arrival="164.00" arrivalLane="intersectionN___intersectionNE_0" arrivalPos="292.00" arrivalSpeed="10.74" duration="26.00" routeLength="286.90" waitingTime="0.00" waitingCount="0" stopTime="0.00" timeLoss="3.52" rerouteNo="0" devices="tripinfo_14" vType="type1" speedFactor="0.94" vaporized=""/>
    <tripinfo id="6" depart="87.00" departLane="northLeft___intersectionNW_0" departPos="5.10" departSpeed="0.00" departDelay="0.00" arrival="183.00" arrivalLane="intersectionCenter___intersectionE_0" arrivalPos="292.00" arrivalSpeed="12.32" duration="96.00" routeLength="1205.89" waitingTime="0.00" waitingCount="0" stopTime="0.00" timeLoss="10.33" rerouteNo="0" devices="tripinfo_6" vType="type1" speedFactor="1.02" vaporized=""/>
    <tripinfo id="13" depart="135.00" departLane="eastMiddle___intersectionE_0" departPos="5.10" departSpeed="0.00" departDelay="0.00" arrival="183.00" arrivalLane="intersectionE___intersectionSE_0" arrivalPos="292.00" arrivalSpeed="14.12" duration="48.00" routeLength="593.09" waitingTime="0.00" waitingCount="0" stopTime="0.00" timeLoss="6.19" rerouteNo="0" devices="tripinfo_13" vType="type1" speedFactor="1.03" vaporized=""/>
    <tripinfo id="4" depart="67.00" departLane="intersectionCenter___intersectionE_0" departPos="5.10" departSpeed="0.00" departDelay="0.00" arrival="209.00" arrivalLane="intersectionCenter___intersectionN_0" arrivalPos="292.00" arrivalSpeed="12.66" duration="142.00" routeLength="1496.39" waitingTime="8.00" waitingCount="2" stopTime="0.00" timeLoss="27.69" rerouteNo="0" devices="tripinfo_4" vType="type1" speedFactor="0.95" vaporized=""/>
    <tripinfo id="5" depart="74.00" departLane="southLeft___intersectionSW_0" departPos="5.10" departSpeed="0.00" departDelay="0.00" arrival="215.00" arrivalLane="intersectionNW___westTop_0" arrivalPos="292.00" arrivalSpeed="12.53" duration="141.00" routeLength="1205.89" waitingTime="42.00" waitingCount="1" stopTime="0.00" timeLoss="55.08" rerouteNo="0" devices="tripinfo_5" vType="type1" speedFactor="1.01" vaporized=""/>
    <tripinfo id="9" depart="116.00" departLane="southRight___intersectionSE_0" departPos="5.10" departSpeed="0.00" departDelay="0.00" arrival="215.00" arrivalLane="intersectionCenter___intersectionN_0" arrivalPos="292.00" arrivalSpeed="13.37" duration="99.00" routeLength="1200.52" waitingTime="3.00" waitingCount="1" stopTime="0.00" timeLoss="21.97" rerouteNo="0" devices="tripinfo_9" vType="type1" speedFactor="1.13" vaporized=""/>
    <tripinfo id="26" depart="165.00" departLane="southMiddle___intersectionS_0" departPos="5.10" departSpeed="0.00" departDelay="0.00" arrival="225.00" arrivalLane="intersectionS___intersectionSW_0" arrivalPos="292.00" arrivalSpeed="11.32" duration="60.00" routeLength="593.09" waitingTime="0.00" waitingCount="0" stopTime="0.00" timeLoss="7.77" rerouteNo="0" devices="tripinfo_26" vType="type1" speedFactor="0.82" vaporized=""/>
    <tripinfo id="15" depart="141.00" departLane="intersectionE___intersectionNE_0" departPos="5.10" departSpeed="0.00" departDelay="0.00" arrival="234.00" arrivalLane="intersectionNE___eastTop_0" arrivalPos="292.00" arrivalSpeed="11.93" duration="93.00" routeLength="587.93" waitingTime="38.00" waitingCount="1" stopTime="0.00" timeLoss="48.45" rerouteNo="0" devices="tripinfo_15" vType="type1" speedFactor="0.97" vaporized=""/>
    <tripinfo id="28" depart="170.00" departLane="eastMiddle___intersectionE_0" departPos="5.10" departSpeed="0.00" departDelay="0.00" arrival="243.00" arrivalLane="intersectionNE___eastTop_0" arrivalPos="292.00" arrivalSpeed="12.75" duration="73.00" routeLength="888.96" waitingTime="1.00" waitingCount="1" stopTime="0.00" timeLoss="11.66" rerouteNo="0" devices="tripinfo_28" vType="type1" speedFactor="1.06" vaporized=""/>
    <tripinfo id="3" depart="66.00" departLane="intersectionS___intersectionSW_0" departPos="5.10" departSpeed="0.00" departDelay="0.00" arrival="250.00" arrivalLane="intersectionS___intersectionCenter_0" arrivalPos="292.00" arrivalSpeed="12.80" duration="184.00" routeLength="2098.45" waitingTime="6.00" waitingCount="3" stopTime="0.00" timeLoss="36.48" rerouteNo="0" devices="tripinfo_3" vType="type1" speedFactor="1.03" vaporized=""/>
    <tripinfo id="33" depart="194.00" departLane="intersectionSE___intersectionS_0" departPos="5.10" departSpeed="0.00" departDelay="0.00" arrival="252.00" arrivalLane="intersectionS___intersectionCenter_0" arrivalPos="292.00" arrivalSpeed="11.95" duration="58.00" routeLength="587.93" waitingTime="4.00" waitingCount="1" stopTime="0.00" timeLoss="15.75" rerouteNo="0" devices="tripinfo_33" vType="type1" speedFactor="1.02" vaporized=""/>
    <tripinfo id="0" depart="13.00" departLane="intersectionCenter___intersectionN_0" departPos="5.10" departSpeed="0.00" departDelay="0.00" arrival="254.00" arrivalLane="intersectionS___intersectionSW_0" arrivalPos="292.00" arrivalSpeed="11.95" duration="241.00" routeLength="1802.79" waitingTime="64.00" waitingCount="3" stopTime="0.00" timeLoss="97.55" rerouteNo="0" devices="tripinfo_0" vType="type1" speedFactor="0.91" vaporized=""/>
    <tripinfo id="12" depart="135.00" departLane="intersectionE___intersectionCenter_0" departPos="7.10" departSpeed="0.00" departDelay="0.00" arrival="254.00" arrivalLane="intersectionNW___westTop_0" arrivalPos="292.00" arrivalSpeed="12.05" duration="119.00" routeLength="1198.52" waitingTime="13.00" waitingCount="2" stopTime="0.00" timeLoss="32.51" rerouteNo="0" devices="tripinfo_12" vType="type2" speedFactor="1.00" vaporized=""/>
    <tripinfo id="29" depart="170.00" departLane="northMiddle___intersectionN_0" departPos="5.10" departSpeed="0.00" departDelay="0.00" arrival="257.00" arrivalLane="intersectionNW___northLeft_0" arrivalPos="292.00" arrivalSpeed="11.88" duration="87.00" routeLength="888.96" waitingTime="5.00" waitingCount="2" stopTime="0.00" timeLoss="21.76" rerouteNo="0" devices="tripinfo_29" vType="type1" speedFactor="0.99" vaporized=""/>
    <tripinfo id="16" depart="142.00" departLane="intersectionE___intersectionCenter_0" departPos="5.10" departSpeed="0.00" departDelay="0.00" arrival="259.00" arrivalLane="intersectionN___intersectionCenter_0" arrivalPos="292.00" arrivalSpeed="12.91" duration="117.00" routeLength="1496.39" waitingTime="1.00" waitingCount="1" stopTime="0.00" timeLoss="17.04" rerouteNo="0" devices="tripinfo_16" vType="type1" speedFactor="1.09" vaporized=""/>
    <tripinfo id="2" depart="64.00" departLane="intersectionSE___intersectionE_0" departPos="5.10" departSpeed="0.00" departDelay="0.00" arrival="263.00" arrivalLane="intersectionN___intersectionCenter_0" arrivalPos="292.00" arrivalSpeed="11.67" duration="199.00" routeLength="1205.68" waitingTime="90.00" waitingCount="3" stopTime="0.00" timeLoss="109.46" rerouteNo="0" devices="tripinfo_2" vType="type1" speedFactor="0.97" vaporized=""/>
    <tripinfo id="21" depart="155.00" departLane="intersectionCenter___intersectionN_0" departPos="5.10" departSpeed="0.00" departDelay="0.00" arrival="267.00" arrivalLane="intersectionNE___northRight_0" arrivalPos="292.00" arrivalSpeed="12.72" duration="112.00" routeLength="894.12" waitingTime="33.00" waitingCount="2" stopTime="0.00" timeLoss="48.42" rerouteNo="0" devices="tripinfo_21" vType="type1" speedFactor="1.02" vaporized=""/>
    <tripinfo id="19" depart="150.00" departLane="intersectionS___intersectionSW_0" departPos="5.10" departSpeed="0.00" departDelay="0.00" arrival="287.00" arrivalLane="intersectionE___intersectionNE_0" arrivalPos="292.00" arrivalSpeed="13.79" duration="137.00" routeLength="1501.55" waitingTime="13.00" waitingCount="1" stopTime="0.00" timeLoss="29.56" rerouteNo="0" devices="tripinfo_19" vType="type1" speedFactor="1.01" vaporized=""/>
    <tripinfo id="38" depart="200.00" departLane="intersectionN___intersectionCenter_0" departPos="5.10" departSpeed="0.00" departDelay="0.00" arrival="289.00" arrivalLane="intersectionE___intersectionNE_0" arrivalPos="292.00" arrivalSpeed="13.11" duration="89.00" routeLength="899.28" waitingTime="17.00" waitingCount="1" stopTime="0.00" timeLoss="28.16" rerouteNo="0" devices="tripinfo_38" vType="type1" speedFactor="1.07" vaporized=""/>
    <tripinfo id="10" depart="122.00" departLane="eastBottom___intersectionSE_0" departPos="5.10" departSpeed="0.00" departDelay="0.00" arrival="290.00" arrivalLane="intersectionN___northMiddle_0" arrivalPos="292.00" arrivalSpeed="11.72" duration="168.00" routeLength="1507.13" waitingTime="27.00" waitingCount="1" stopTime="0.00" timeLoss="45.00" rerouteNo="0" devices="tripinfo_10" vType="type1" speedFactor="0.89" vaporized=""/>
    <tripinfo id="47" depart="218.00" departLane="southMiddle___intersectionS_0" departPos="5.10" departSpeed="0.00" departDelay="0.00" arrival="292.00" arrivalLane="intersectionSW___southLeft_0" arrivalPos="292.00" arrivalSpeed="12.73" duration="74.00" routeLength="899.28" waitingTime="0.00" waitingCount="0" stopTime="0.00" timeLoss="8.60" rerouteNo="0" devices="tripinfo_47" vType="type1" speedFactor="1.00" vaporized=""/>
    <tripinfo id="18" depart="148.00" departLane="southLeft___intersectionSW_0" departPos="5.10" departSpeed="0.00" departDelay="0.00" arrival="306.00" arrivalLane="intersectionSE___eastBottom_0" arrivalPos="292.00" arrivalSpeed="13.67" duration="158.00" routeLength="1200.73" waitingTime="51.00" waitingCount="4" stopTime="0.00" timeLoss="74.93" rerouteNo="0" devices="tripinfo_18" vType="type1" speedFactor="1.05" vaporized=""/>
    <tripinfo id="25" depart="164.00" departLane="intersectionNE___intersectionE_0" departPos="5.10" departSpeed="0.00" departDelay="0.00" arrival="310.00" arrivalLane="intersectionSE___intersectionE_0" arrivalPos="292.00" arrivalSpeed="12.06" duration="146.00" routeLength="1506.50" waitingTime="18.00" waitingCount="2" stopTime="0.00" timeLoss="40.49" rerouteNo="0" devices="tripinfo_25" vType="type1" speedFactor="1.04" vaporized=""/>
    <tripinfo id="45" depart="213.00" departLane="westMiddle___intersectionW_0" departPos="5.10" departSpeed="0.00" departDelay="0.00" arrival="310.00" arrivalLane="intersectionCenter___intersectionE_0" arrivalPos="292.00" arrivalSpeed="12.14" duration="97.00" routeLength="899.70" waitingTime="12.00" waitingCount="1" stopTime="0.00" timeLoss="25.48" rerouteNo="0" devices="tripinfo_45" vType="type1" speedFactor="0.91" vaporized=""/>
    <tripinfo id="53" depart="256.00" departLane="intersectionNW___intersectionN_0" departPos="5.10" departSpeed="0.00" departDelay="0.00" arrival="311.00" arrivalLane="intersectionNW___intersectionN_0" arrivalPos="292.00" arrivalSpeed="8.90" duration="55.00" routeLength="286.90" waitingTime="23.00" waitingCount="1" stopTime="0.00" timeLoss="34.52" rerouteNo="0" devices="tripinfo_53" vType="type1" speedFactor="1.03" vaporized=""/>
    <tripinfo id="35" depart="196.00" departLane="intersectionSE___intersectionE_0" departPos="5.10" departSpeed="0.00" departDelay="0.00" arrival="317.00" arrivalLane="intersectionCenter___intersectionN_0" arrivalPos="292.00" arrivalSpeed="11.07" duration="121.00" routeLength="894.12" waitingTime="31.00" waitingCount="2" stopTime="0.00" timeLoss="48.65" rerouteNo="0" devices="tripinfo_35" vType="type1" speedFactor="0.90" vaporized=""/>
    <tripinfo id="8" depart="114.00" departLane="intersectionE___intersectionNE_0" departPos="5.10" departSpeed="0.00" departDelay="0.00" arrival="324.00" arrivalLane="intersectionW___intersectionSW_0" arrivalPos="292.00" arrivalSpeed="12.66" duration="210.00" routeLength="1512.08" waitingTime="64.00" waitingCount="2" stopTime="0.00" timeLoss="91.57" rerouteNo="0" devices="tripinfo_8" vType="type1" speedFactor="0.92" vaporized=""/>
    <tripinfo id="20" depart="152.00" departLane="westTop___intersectionNW_0" departPos="5.10" departSpeed="0.00" departDelay="0.00" arrival="325.00" arrivalLane="intersectionS___intersectionSW_0" arrivalPos="292.00" arrivalSpeed="12.89" duration="173.00" routeLength="1501.76" waitingTime="42.00" waitingCount="1" stopTime="0.00" timeLoss="59.64" rerouteNo="0" devices="tripinfo_20" vType="type1" speedFactor="0.96" vaporized=""/>
    <tripinfo id="17" depart="143.00" departLane="intersectionNE___intersectionE_0" departPos="5.10" departSpeed="0.00" departDelay="0.00" arrival="327.00" arrivalLane="intersectionCenter___intersectionE_0" arrivalPos="292.00" arrivalSpeed="9.60" duration="184.00" routeLength="1496.39" waitingTime="7.00" waitingCount="3" stopTime="0.00" timeLoss="39.24" rerouteNo="0" devices="tripinfo_17" vType="type1" speedFactor="0.75" vaporized=""/>
    <tripinfo id="23" depart="163.00" departLane="westBottom___intersectionSW_0" departPos="5.10" departSpeed="0.00" departDelay="0.00" arrival="330.00" arrivalLane="intersectionNW___westTop_0" arrivalPos="292.00" arrivalSpeed="13.47" duration="167.00" routeLength="1205.68" waitingTime="64.00" waitingCount="2" stopTime="0.00" timeLoss="84.46" rerouteNo="0" devices="tripinfo_23" vType="type1" speedFactor="1.05" vaporized=""/>
    <tripinfo id="39" depart="201.00" departLane="intersectionSE___intersectionS_0" departPos="5.10" departSpeed="0.00" departDelay="0.00" arrival="330.00" arrivalLane="intersectionW___westMiddle_0" arrivalPos="292.00" arrivalSpeed="11.84" duration="129.00" routeLength="1200.52" waitingTime="18.00" waitingCount="2" stopTime="0.00" timeLoss="39.59" rerouteNo="0" devices="tripinfo_39" vType="type1" speedFactor="0.98" vaporized=""/>
    <tripinfo id="42" depart="204.00" departLane="intersectionSE___intersectionS_0" departPos="5.10" departSpeed="0.00" departDelay="0.00" arrival="331.00" arrivalLane="intersectionW___intersectionSW_0" arrivalPos="292.00" arrivalSpeed="10.51" duration="127.00" routeLength="1200.31" waitingTime="16.00" waitingCount="1" stopTime="0.00" timeLoss="48.56" rerouteNo="0" devices="tripinfo_42" vType="type1" speedFactor="1.11" vaporized=""/>
    <tripinfo id="30" depart="177.00" departLane="intersectionCenter___intersectionW_0" departPos="5.10" departSpeed="0.00" departDelay="0.00" arrival="335.00" arrivalLane="intersectionN___northMiddle_0" arrivalPos="292.00" arrivalSpeed="10.68" duration="158.00" routeLength="1195.15" waitingTime="37.00" waitingCount="3" stopTime="0.00" timeLoss="59.92" rerouteNo="0" devices="tripinfo_30" vType="type1" speedFactor="0.88" vaporized=""/>
    <tripinfo id="49" depart="233.00" departLane="intersectionSW___intersectionW_0" departPos="5.10" departSpeed="0.00" departDelay="0.00" arrival="335.00" arrivalLane="intersectionNW___westTop_0" arrivalPos="292.00" arrivalSpeed="13.48" duration="102.00" routeLength="899.49" waitingTime="25.00" waitingCount="1" stopTime="0.00" timeLoss="39.71" rerouteNo="0" devices="tripinfo_49" vType="type1" speedFactor="1.05" vaporized=""/>
    <tripinfo id="40" depart="201.00" departLane="northLeft___intersectionNW_0" departPos="5.10" departSpeed="0.00" departDelay="0.00" arrival="337.00" arrivalLane="intersectionN___northMiddle_0" arrivalPos="292.00" arrivalSpeed="12.94" duration="136.00" routeLength="899.28" waitingTime="46.00" waitingCount="3" stopTime="0.00" timeLoss="74.20" rerouteNo="0" devices="tripinfo_40" vType="type1" speedFactor="1.06" vaporized=""/>
    <tripinfo id="48" depart="225.00" departLane="northRight___intersectionNE_0" departPos="5.10" departSpeed="0.00" departDelay="0.00" arrival="339.00" arrivalLane="intersectionN___intersectionNW_0" arrivalPos="292.00" arrivalSpeed="9.44" duration="114.00" routeLength="894.33" waitingTime="4.00" waitingCount="1" stopTime="0.00" timeLoss="24.19" rerouteNo="0" devices="tripinfo_48" vType="type1" speedFactor="0.72" vaporized=""/>
    <tripinfo id="22" depart="156.00" departLane="intersectionW___intersectionNW_0" departPos="5.10" departSpeed="0.00" departDelay="0.00" arrival="344.00" arrivalLane="intersectionSW___intersectionW_0" arrivalPos="292.00" arrivalSpeed="5.94" duration="188.00" routeLength="1797.42" waitingTime="37.00" waitingCount="4" stopTime="0.00" timeLoss="65.28" rerouteNo="0" devices="tripinfo_22" vType="type1" speedFactor="1.05" vaporized=""/>
    <tripinfo id="34" depart="196.00" departLane="intersectionSE___intersectionS_0" departPos="5.10" departSpeed="0.00" departDelay="0.00" arrival="345.00" arrivalLane="intersectionNW___northLeft_0" arrivalPos="292.00" arrivalSpeed="10.48" duration="149.00" routeLength="1507.13" waitingTime="8.00" waitingCount="2" stopTime="0.00" timeLoss="32.04" rerouteNo="0" devices="tripinfo_34" vType="type1" speedFactor="0.93" vaporized=""/>
    <tripinfo id="32" depart="183.00" departLane="intersectionNW___intersectionW_0" departPos="5.10" departSpeed="0.00" departDelay="0.00" arrival="346.00" arrivalLane="intersectionNW___westTop_0" arrivalPos="292.00" arrivalSpeed="14.05" duration="163.00" routeLength="1511.87" waitingTime="40.00" waitingCount="2" stopTime="0.00" timeLoss="61.75" rerouteNo="0" devices="tripinfo_32" vType="type1" speedFactor="1.08" vaporized=""/>
    <tripinfo id="11" depart="126.00" departLane="westBottom___intersectionSW_0" departPos="5.10" departSpeed="0.00" departDelay="0.00" arrival="350.00" arrivalLane="intersectionNW___intersectionW_0" arrivalPos="292.00" arrivalSpeed="12.75" duration="224.00" routeLength="1818.27" waitingTime="61.00" waitingCount="4" stopTime="0.00" timeLoss="91.75" rerouteNo="0" devices="tripinfo_11" vType="type1" speedFactor="1.00" vaporized=""/>
    <tripinfo id="61" depart="293.00" departLane="intersectionW___intersectionCenter_0" departPos="5.10" departSpeed="0.00" departDelay="2.00" arrival="350.00" arrivalLane="intersectionCenter___intersectionS_0" arrivalPos="292.00" arrivalSpeed="12.90" duration="57.00" routeLength="587.93" waitingTime="0.00" waitingCount="0" stopTime="0.00" timeLoss="13.02" rerouteNo="0" devices="tripinfo_61" vType="type1" speedFactor="0.98" vaporized=""/>
    <tripinfo id="56" depart="272.00" departLane="eastMiddle___intersectionE_0" departPos="5.10" departSpeed="0.00" departDelay="0.00" arrival="354.00" arrivalLane="intersectionNE___eastTop_0" arrivalPos="292.00" arrivalSpeed="13.34" duration="82.00" routeLength="888.96" waitingTime="7.00" waitingCount="2" stopTime="0.00" timeLoss="21.81" rerouteNo="0" devices="tripinfo_56" vType="type1" speedFactor="1.08" vaporized=""/>
    <tripinfo id="31" depart="180.00" departLane="intersectionW___intersectionNW_0" departPos="5.10" departSpeed="0.00" departDelay="0.00" arrival="355.00" arrivalLane="intersectionSW___intersectionS_0" arrivalPos="292.00" arrivalSpeed="11.52" duration="175.00" routeLength="1802.37" waitingTime="17.00" waitingCount="1" stopTime="0.00" timeLoss="37.92" rerouteNo="0" devices="tripinfo_31" vType="type1" speedFactor="0.95" vaporized=""/>
    <tripinfo id="51" depart="242.00" departLane="intersectionSW___intersectionW_0" departPos="5.10" departSpeed="0.00" departDelay="0.00" arrival="359.00" arrivalLane="intersectionE___intersectionSE_0" arrivalPos="292.00" arrivalSpeed="12.92" duration="117.00" routeLength="1195.36" waitingTime="19.00" waitingCount="1" stopTime="0.00" timeLoss="39.36" rerouteNo="0" devices="tripinfo_51" vType="type1" speedFactor="1.11" vaporized=""/>
    <tripinfo id="60" depart="288.00" departLane="intersectionE___intersectionSE_0" departPos="7.10" departSpeed="0.00" departDelay="0.00" arrival="360.00" arrivalLane="intersectionS___intersectionSW_0" arrivalPos="292.00" arrivalSpeed="13.05" duration="72.00" routeLength="892.33" waitingTime="0.00" waitingCount="0" stopTime="0.00" timeLoss="7.35" rerouteNo="0" devices="tripinfo_60" vType="type2" speedFactor="1.00" vaporized=""/>
    <tripinfo id="24" depart="163.00" departLane="northRight___intersectionNE_0" departPos="5.10" departSpeed="0.00" departDelay="0.00" arrival="365.00" arrivalLane="intersectionSW___intersectionS_0" arrivalPos="292.00" arrivalSpeed="8.34" duration="202.00" routeLength="1813.11" waitingTime="41.00" waitingCount="4" stopTime="0.00" timeLoss="73.84" rerouteNo="0" devices="tripinfo_24" vType="type1" speedFactor="1.02" vaporized=""/>
    <tripinfo id="43" depart="211.00" departLane="intersectionSW___intersectionW_0" departPos="5.10" departSpeed="0.00" departDelay="0.00" arrival="370.00" arrivalLane="intersectionN___intersectionCenter_0" arrivalPos="292.00" arrivalSpeed="13.73" duration="159.00" routeLength="1195.36" waitingTime="60.00" waitingCount="3" stopTime="0.00" timeLoss="82.17" rerouteNo="0" devices="tripinfo_43" vType="type1" speedFactor="1.13" vaporized=""/>
    <tripinfo id="58" depart="281.00" departLane="southLeft___intersectionSW_0" departPos="5.10" departSpeed="0.00" departDelay="0.00" arrival="371.00" arrivalLane="intersectionS___intersectionCenter_0" arrivalPos="292.00" arrivalSpeed="13.33" duration="90.00" routeLength="894.12" waitingTime="10.00" waitingCount="2" stopTime="0.00" timeLoss="26.00" rerouteNo="0" devices="tripinfo_58" vType="type1" speedFactor="1.02" vaporized=""/>
    <tripinfo id="63" depart="292.00" departLane="northLeft___intersectionNW_0" departPos="5.10" departSpeed="0.00" departDelay="0.00" arrival="381.00" arrivalLane="intersectionNE___eastTop_0" arrivalPos="292.00" arrivalSpeed="15.82" duration="89.00" routeLength="1205.89" waitingTime="4.00" waitingCount="1" stopTime="0.00" timeLoss="20.37" rerouteNo="0" devices="tripinfo_63" vType="type1" speedFactor="1.27" vaporized=""/>
    <tripinfo id="80" depart="328.00" departLane="northMiddle___intersectionN_0" departPos="5.10" departSpeed="0.00" departDelay="0.00" arrival="385.00" arrivalLane="intersectionN___intersectionNW_0" arrivalPos="292.00" arrivalSpeed="12.54" duration="57.00" routeLength="587.93" waitingTime="1.00" waitingCount="1" stopTime="0.00" timeLoss="11.59" rerouteNo="0" devices="tripinfo_80" vType="type1" speedFactor="0.95" vaporized=""/>
    <tripinfo id="64" depart="296.00" departLane="intersectionCenter___intersectionE_0" departPos="5.10" departSpeed="0.00" departDelay="2.00" arrival="387.00" arrivalLane="intersectionSE___intersectionS_0" arrivalPos="292.00" arrivalSpeed="9.98" duration="91.00" routeLength="888.96" waitingTime="0.00" waitingCount="0" stopTime="0.00" timeLoss="14.31" rerouteNo="0" devices="tripinfo_64" vType="type1" speedFactor="0.84" vaporized=""/>
    <tripinfo id="68" depart="312.00" departLane="intersectionW___intersectionNW_0" departPos="5.10" departSpeed="0.00" departDelay="0.00" arrival="389.00" arrivalLane="intersectionN___intersectionCenter_0" arrivalPos="292.00" arrivalSpeed="12.40" duration="77.00" routeLength="888.96" waitingTime="2.00" waitingCount="2" stopTime="0.00" timeLoss="15.67" rerouteNo="0" devices="tripinfo_68" vType="type1" speedFactor="1.05" vaporized=""/>
    <tripinfo id="36" depart="197.00" departLane="eastMiddle___intersectionE_0" departPos="5.10" departSpeed="0.00" departDelay="0.00" arrival="394.00" arrivalLane="intersectionSW___intersectionW_0" arrivalPos="292.00" arrivalSpeed="12.98" duration="197.00" routeLength="1501.55" waitingTime="62.00" waitingCount="2" stopTime="0.00" timeLoss="84.37" rerouteNo="0" devices="tripinfo_36" vType="type1" speedFactor="0.97" vaporized=""/>
    <tripinfo id="78" depart="325.00" departLane="intersectionW___intersectionCenter_0" departPos="5.10" departSpeed="0.00" departDelay="0.00" arrival="394.00" arrivalLane="intersectionN___northMiddle_0" arrivalPos="292.00" arrivalSpeed="14.00" duration="69.00" routeLength="899.49" waitingTime="0.00" waitingCount="0" stopTime="0.00" timeLoss="7.80" rerouteNo="0" devices="tripinfo_78" vType="type1" speedFactor="1.06" vaporized=""/>
    <tripinfo id="37" depart="200.00" departLane="westTop___intersectionNW_0" departPos="5.10" departSpeed="0.00" departDelay="0.00" arrival="395.00" arrivalLane="intersectionSE___intersectionE_0" arrivalPos="292.00" arrivalSpeed="12.67" duration="195.00" routeLength="1813.11" waitingTime="34.00" waitingCount="1" stopTime="0.00" timeLoss="56.75" rerouteNo="0" devices="tripinfo_37" vType="type1" speedFactor="0.95" vaporized=""/>
    <tripinfo id="7" depart="107.00" departLane="intersectionN___intersectionNW_0" departPos="5.10" departSpeed="0.00" departDelay="0.00" arrival="397.00" arrivalLane="intersectionSW___intersectionW_0" arrivalPos="292.00" arrivalSpeed="13.17" duration="290.00" routeLength="1802.37" waitingTime="131.00" waitingCount="4" stopTime="0.00" timeLoss="173.82" rerouteNo="0" devices="tripinfo_7" vType="type1" speedFactor="1.12" vaporized=""/>
    <tripinfo id="76" depart="324.00" departLane="intersectionCenter___intersectionS_0" departPos="5.10" departSpeed="0.00" departDelay="1.00" arrival="405.00" arrivalLane="intersectionSW___intersectionW_0" arrivalPos="292.00" arrivalSpeed="10.62" duration="81.00" routeLength="888.96" waitingTime="0.00" waitingCount="0" stopTime="0.00" timeLoss="11.58" rerouteNo="0" devices="tripinfo_76" vType="type1" speedFactor="0.93" vaporized=""/>
    <tripinfo id="27" depart="168.00" departLane="intersectionSE___intersectionS_0" departPos="5.10" departSpeed="0.00" departDelay="0.00" arrival="406.00" arrivalLane="intersectionSE___intersectionE_0" arrivalPos="292.00" arrivalSpeed="9.66" duration="238.00" routeLength="2108.77" waitingTime="28.00" waitingCount="2" stopTime="0.00" timeLoss="62.24" rerouteNo="0" devices="tripinfo_27" vType="type1" speedFactor="0.87" vaporized=""/>
    <tripinfo id="77" depart="326.00" departLane="intersectionCenter___intersectionS_0" departPos="5.10" departSpeed="0.00" departDelay="2.00" arrival="406.00" arrivalLane="intersectionSW___intersectionW_0" arrivalPos="292.00" arrivalSpeed="14.69" duration="80.00" routeLength="888.96" waitingTime="0.00" waitingCount="0" stopTime="0.00" timeLoss="22.44" rerouteNo="0" devices="tripinfo_77" vType="type1" speedFactor="1.11" vaporized=""/>
    <tripinfo id="44" depart="213.00" departLane="intersectionE___intersectionSE_0" departPos="5.10" departSpeed="0.00" departDelay="0.00" arrival="410.00" arrivalLane="intersectionN___northMiddle_0" arrivalPos="292.00" arrivalSpeed="12.77" duration="197.00" routeLength="1501.76" waitingTime="68.00" waitingCount="2" stopTime="0.00" timeLoss="92.96" rerouteNo="0" devices="tripinfo_44" vType="type1" speedFactor="1.04" vaporized=""/>
    <tripinfo id="52" depart="253.00" departLane="intersectionSE___intersectionS_0" departPos="5.10" departSpeed="0.00" departDelay="0.00" arrival="410.00" arrivalLane="intersectionN___intersectionNE_0" arrivalPos="292.00" arrivalSpeed="14.05" duration="157.00" routeLength="1195.36" waitingTime="62.00" waitingCount="1" stopTime="0.00" timeLoss="76.56" rerouteNo="0" devices="tripinfo_52" vType="type1" speedFactor="1.08" vaporized=""/>
    <tripinfo id="84" depart="343.00" departLane="eastTop___intersectionNE_0" departPos="5.10" departSpeed="0.00" departDelay="0.00" arrival="414.00" arrivalLane="intersectionNE___intersectionN_0" arrivalPos="292.00" arrivalSpeed="9.31" duration="71.00" routeLength="593.30" waitingTime="15.00" waitingCount="2" stopTime="0.00" timeLoss="29.80" rerouteNo="0" devices="tripinfo_84" vType="type1" speedFactor="1.05" vaporized=""/>
    <tripinfo id="65" depart="298.00" departLane="intersectionNW___intersectionN_0" departPos="7.10" departSpeed="0.00" departDelay="0.00" arrival="433.00" arrivalLane="intersectionCenter___intersectionS_0" arrivalPos="292.00" arrivalSpeed="6.04" duration="135.00" routeLength="892.33" waitingTime="45.00" waitingCount="3" stopTime="0.00" timeLoss="70.65" rerouteNo="0" devices="tripinfo_65" vType="type2" speedFactor="1.00" vaporized=""/>
    <tripinfo id="73" depart="315.00" departLane="intersectionSE___intersectionS_0" departPos="5.10" departSpeed="0.00" departDelay="0.00" arrival="434.00" arrivalLane="intersectionE___intersectionSE_0" arrivalPos="292.00" arrivalSpeed="10.93" duration="119.00" routeLength="1189.99" waitingTime="1.00" waitingCount="1" stopTime="0.00" timeLoss="19.48" rerouteNo="0" devices="tripinfo_73" vType="type1" speedFactor="0.86" vaporized=""/>
    <tripinfo id="54" depart="257.00" departLane="intersectionSW___intersectionS_0" departPos="5.10" departSpeed="0.00" departDelay="0.00" arrival="448.00" arrivalLane="intersectionSE___intersectionS_0" arrivalPos="292.00" arrivalSpeed="12.26" duration="191.00" routeLength="1496.18" waitingTime="48.00" waitingCount="2" stopTime="0.00" timeLoss="68.79" rerouteNo="0" devices="tripinfo_54" vType="type1" speedFactor="0.88" vaporized=""/>