<?xml version="1.0" encoding="UTF-8"?>

<!-- generated on 2024-03-20 08:12:09 by Eclipse SUMO libsumo Version 1.19.0
<configuration xmlns:xsi="http://www.w3.org/2001/XMLSchema-instance" xsi:noNamespaceSchemaLocation="http://sumo.dlr.de/xsd/libsumoConfiguration.xsd">

    <input>
        <net-file value="./nets/3x3/network.net.xml"/>
        <route-files value="./nets/3x3/generated_route.rou.xml"/>
    </input>

    <output>
        <queue-output value="./DDQN/runs/3x3/run_10/QueueInfo/episode_2"/>
        <summary-output value="./DDQN/runs/3x3/run_10/Summary/episode_2"/>
        <tripinfo-output value="./DDQN/runs/3x3/run_10/VehicleInfo/episode_2"/>
    </output>

    <processing>
        <waiting-time-memory value="10000"/>
    </processing>

    <report>
        <no-warnings value="true"/>
        <log value="./nets/3x3/sumo_log.txt"/>
        <no-step-log value="true"/>
    </report>

    <emissions>
        <phemlight-path value="./nets/3x3/./PHEMlight/"/>
    </emissions>

    <random_number>
        <random value="true"/>
    </random_number>

</configuration>
-->

<tripinfos xmlns:xsi="http://www.w3.org/2001/XMLSchema-instance" xsi:noNamespaceSchemaLocation="http://sumo.dlr.de/xsd/tripinfo_file.xsd">
    <tripinfo id="14" depart="110.00" departLane="intersectionN___intersectionNE_0" departPos="5.10" departSpeed="0.00" departDelay="0.00" arrival="136.00" arrivalLane="intersectionN___intersectionNE_0" arrivalPos="292.00" arrivalSpeed="11.01" duration="26.00" routeLength="286.90" waitingTime="0.00" waitingCount="0" stopTime="0.00" timeLoss="4.07" rerouteNo="0" devices="tripinfo_14" vType="type1" speedFactor="0.96" vaporized=""/>
    <tripinfo id="13" depart="107.00" departLane="eastMiddle___intersectionE_0" departPos="5.10" departSpeed="0.00" departDelay="0.00" arrival="158.00" arrivalLane="intersectionE___intersectionSE_0" arrivalPos="292.00" arrivalSpeed="12.88" duration="51.00" routeLength="593.09" waitingTime="0.00" waitingCount="0" stopTime="0.00" timeLoss="5.89" rerouteNo="0" devices="tripinfo_13" vType="type1" speedFactor="0.96" vaporized=""/>
    <tripinfo id="15" depart="114.00" departLane="intersectionE___intersectionNE_0" departPos="5.10" departSpeed="0.00" departDelay="0.00" arrival="160.00" arrivalLane="intersectionNE___eastTop_0" arrivalPos="292.00" arrivalSpeed="14.07" duration="46.00" routeLength="587.93" waitingTime="0.00" waitingCount="0" stopTime="0.00" timeLoss="4.54" rerouteNo="0" devices="tripinfo_15" vType="type1" speedFactor="1.04" vaporized=""/>
    <tripinfo id="2" depart="33.00" departLane="intersectionSE___intersectionE_0" departPos="7.10" departSpeed="0.00" departDelay="0.00" arrival="170.00" arrivalLane="intersectionN___intersectionCenter_0" arrivalPos="292.00" arrivalSpeed="12.00" duration="137.00" routeLength="1203.68" waitingTime="34.00" waitingCount="2" stopTime="0.00" timeLoss="49.97" rerouteNo="0" devices="tripinfo_2" vType="type2" speedFactor="1.00" vaporized=""/>
    <tripinfo id="5" depart="66.00" departLane="southLeft___intersectionSW_0" departPos="5.10" departSpeed="0.00" departDelay="0.00" arrival="172.00" arrivalLane="intersectionNW___westTop_0" arrivalPos="292.00" arrivalSpeed="11.48" duration="106.00" routeLength="1205.89" waitingTime="4.00" waitingCount="1" stopTime="0.00" timeLoss="16.73" rerouteNo="0" devices="tripinfo_5" vType="type1" speedFactor="0.98" vaporized=""/>
    <tripinfo id="6" depart="67.00" departLane="northLeft___intersectionNW_0" departPos="7.10" departSpeed="0.00" departDelay="0.00" arrival="197.00" arrivalLane="intersectionCenter___intersectionE_0" arrivalPos="292.00" arrivalSpeed="9.93" duration="130.00" routeLength="1203.89" waitingTime="28.00" waitingCount="1" stopTime="0.00" timeLoss="42.84" rerouteNo="0" devices="tripinfo_6" vType="type2" speedFactor="1.00" vaporized=""/>
    <tripinfo id="1" depart="24.00" departLane="northLeft___intersectionNW_0" departPos="5.10" departSpeed="0.00" departDelay="0.00" arrival="202.00" arrivalLane="intersectionNE___intersectionE_0" arrivalPos="292.00" arrivalSpeed="11.48" duration="178.00" routeLength="1200.52" waitingTime="63.00" waitingCount="2" stopTime="0.00" timeLoss="81.75" rerouteNo="0" devices="tripinfo_1" vType="type1" speedFactor="0.91" vaporized=""/>
    <tripinfo id="33" depart="146.00" departLane="intersectionSE___intersectionS_0" departPos="5.10" departSpeed="0.00" departDelay="0.00" arrival="208.00" arrivalLane="intersectionS___intersectionCenter_0" arrivalPos="292.00" arrivalSpeed="12.98" duration="62.00" routeLength="587.93" waitingTime="16.00" waitingCount="1" stopTime="0.00" timeLoss="24.78" rerouteNo="0" devices="tripinfo_33" vType="type1" speedFactor="1.14" vaporized=""/>
    <tripinfo id="35" depart="150.00" departLane="intersectionSE___intersectionE_0" departPos="5.10" departSpeed="0.00" departDelay="0.00" arrival="214.00" arrivalLane="intersectionCenter___intersectionN_0" arrivalPos="292.00" arrivalSpeed="14.24" duration="64.00" routeLength="894.12" waitingTime="0.00" waitingCount="0" stopTime="0.00" timeLoss="8.74" rerouteNo="0" devices="tripinfo_35" vType="type1" speedFactor="1.17" vaporized=""/>
    <tripinfo id="29" depart="142.00" departLane="northMiddle___intersectionN_0" departPos="7.10" departSpeed="0.00" departDelay="0.00" arrival="218.00" arrivalLane="intersectionNW___northLeft_0" arrivalPos="292.00" arrivalSpeed="11.42" duration="76.00" routeLength="886.96" waitingTime="1.00" waitingCount="1" stopTime="0.00" timeLoss="11.81" rerouteNo="0" devices="tripinfo_29" vType="type2" speedFactor="1.00" vaporized=""/>
    <tripinfo id="53" depart="193.00" departLane="intersectionNW___intersectionN_0" departPos="5.10" departSpeed="0.00" departDelay="0.00" arrival="221.00" arrivalLane="intersectionNW___intersectionN_0" arrivalPos="292.00" arrivalSpeed="11.73" duration="28.00" routeLength="286.90" waitingTime="0.00" waitingCount="0" stopTime="0.00" timeLoss="3.75" rerouteNo="0" devices="tripinfo_53" vType="type1" speedFactor="0.87" vaporized=""/>
    <tripinfo id="18" depart="121.00" departLane="southLeft___intersectionSW_0" departPos="5.10" departSpeed="0.00" departDelay="0.00" arrival="226.00" arrivalLane="intersectionSE___eastBottom_0" arrivalPos="292.00" arrivalSpeed="12.60" duration="105.00" routeLength="1200.73" waitingTime="4.00" waitingCount="2" stopTime="0.00" timeLoss="21.08" rerouteNo="0" devices="tripinfo_18" vType="type1" speedFactor="1.04" vaporized=""/>
    <tripinfo id="21" depart="126.00" departLane="intersectionCenter___intersectionN_0" departPos="5.10" departSpeed="0.00" departDelay="0.00" arrival="226.00" arrivalLane="intersectionNE___northRight_0" arrivalPos="292.00" arrivalSpeed="13.79" duration="100.00" routeLength="894.12" waitingTime="24.00" waitingCount="2" stopTime="0.00" timeLoss="36.56" rerouteNo="0" devices="tripinfo_21" vType="type1" speedFactor="1.02" vaporized=""/>
    <tripinfo id="28" depart="141.00" departLane="eastMiddle___intersectionE_0" departPos="5.10" departSpeed="0.00" departDelay="0.00" arrival="226.00" arrivalLane="intersectionNE___eastTop_0" arrivalPos="292.00" arrivalSpeed="12.12" duration="85.00" routeLength="888.96" waitingTime="1.00" waitingCount="1" stopTime="0.00" timeLoss="13.11" rerouteNo="0" devices="tripinfo_28" vType="type1" speedFactor="0.89" vaporized=""/>
    <tripinfo id="26" depart="138.00" departLane="southMiddle___intersectionS_0" departPos="5.10" departSpeed="0.00" departDelay="0.00" arrival="229.00" arrivalLane="intersectionS___intersectionSW_0" arrivalPos="292.00" arrivalSpeed="11.42" duration="91.00" routeLength="593.09" waitingTime="34.00" waitingCount="1" stopTime="0.00" timeLoss="44.48" rerouteNo="0" devices="tripinfo_26" vType="type1" speedFactor="0.92" vaporized=""/>
    <tripinfo id="7" depart="72.00" departLane="intersectionN___intersectionNW_0" departPos="5.10" departSpeed="0.00" departDelay="0.00" arrival="245.00" arrivalLane="intersectionSW___intersectionW_0" arrivalPos="292.00" arrivalSpeed="11.35" duration="173.00" routeLength="1802.37" waitingTime="14.00" waitingCount="2" stopTime="0.00" timeLoss="37.96" rerouteNo="0" devices="tripinfo_7" vType="type1" speedFactor="0.96" vaporized=""/>
    <tripinfo id="30" depart="143.00" departLane="intersectionCenter___intersectionW_0" departPos="7.10" departSpeed="0.00" departDelay="0.00" arrival="247.00" arrivalLane="intersectionN___northMiddle_0" arrivalPos="292.00" arrivalSpeed="11.42" duration="104.00" routeLength="1193.15" waitingTime="1.00" waitingCount="1" stopTime="0.00" timeLoss="18.02" rerouteNo="0" devices="tripinfo_30" vType="type2" speedFactor="1.00" vaporized=""/>
    <tripinfo id="4" depart="64.00" departLane="intersectionCenter___intersectionE_0" departPos="5.10" departSpeed="0.00" departDelay="0.00" arrival="249.00" arrivalLane="intersectionCenter___intersectionN_0" arrivalPos="292.00" arrivalSpeed="11.93" duration="185.00" routeLength="1496.39" waitingTime="44.00" waitingCount="5" stopTime="0.00" timeLoss="83.65" rerouteNo="0" devices="tripinfo_4" vType="type1" speedFactor="1.07" vaporized=""/>
    <tripinfo id="47" depart="170.00" departLane="southMiddle___intersectionS_0" departPos="5.10" departSpeed="0.00" departDelay="0.00" arrival="254.00" arrivalLane="intersectionSW___southLeft_0" arrivalPos="292.00" arrivalSpeed="14.22" duration="84.00" routeLength="899.28" waitingTime="7.00" waitingCount="1" stopTime="0.00" timeLoss="21.63" rerouteNo="0" devices="tripinfo_47" vType="type1" speedFactor="1.05" vaporized=""/>
    <tripinfo id="8" depart="74.00" departLane="intersectionE___intersectionNE_0" departPos="5.10" departSpeed="0.00" departDelay="0.00" arrival="261.00" arrivalLane="intersectionW___intersectionSW_0" arrivalPos="292.00" arrivalSpeed="12.64" duration="187.00" routeLength="1512.08" waitingTime="56.00" waitingCount="4" stopTime="0.00" timeLoss="82.21" rerouteNo="0" devices="tripinfo_8" vType="type1" speedFactor="1.05" vaporized=""/>
    <tripinfo id="48" depart="176.00" departLane="northRight___intersectionNE_0" departPos="5.10" departSpeed="0.00" departDelay="0.00" arrival="264.00" arrivalLane="intersectionN___intersectionNW_0" arrivalPos="292.00" arrivalSpeed="11.21" duration="88.00" routeLength="894.33" waitingTime="3.00" waitingCount="1" stopTime="0.00" timeLoss="13.37" rerouteNo="0" devices="tripinfo_48" vType="type1" speedFactor="0.87" vaporized=""/>
    <tripinfo id="56" depart="196.00" departLane="eastMiddle___intersectionE_0" departPos="5.10" departSpeed="0.00" departDelay="0.00" arrival="269.00" arrivalLane="intersectionNE___eastTop_0" arrivalPos="292.00" arrivalSpeed="12.52" duration="73.00" routeLength="888.96" waitingTime="1.00" waitingCount="1" stopTime="0.00" timeLoss="11.15" rerouteNo="0" devices="tripinfo_56" vType="type1" speedFactor="1.04" vaporized=""/>
    <tripinfo id="39" depart="155.00" departLane="intersectionSE___intersectionS_0" departPos="7.10" departSpeed="0.00" departDelay="0.00" arrival="271.00" arrivalLane="intersectionW___westMiddle_0" arrivalPos="292.00" arrivalSpeed="11.76" duration="116.00" routeLength="1198.52" waitingTime="14.00" waitingCount="2" stopTime="0.00" timeLoss="29.16" rerouteNo="0" devices="tripinfo_39" vType="type2" speedFactor="1.00" vaporized=""/>
    <tripinfo id="65" depart="203.00" departLane="intersectionNW___intersectionN_0" departPos="5.10" departSpeed="0.00" departDelay="0.00" arrival="271.00" arrivalLane="intersectionCenter___intersectionS_0" arrivalPos="292.00" arrivalSpeed="14.24" duration="68.00" routeLength="894.33" waitingTime="0.00" waitingCount="0" stopTime="0.00" timeLoss="6.13" rerouteNo="0" devices="tripinfo_65" vType="type1" speedFactor="1.06" vaporized=""/>
    <tripinfo id="10" depart="88.00" departLane="eastBottom___intersectionSE_0" departPos="5.10" departSpeed="0.00" departDelay="0.00" arrival="273.00" arrivalLane="intersectionN___northMiddle_0" arrivalPos="292.00" arrivalSpeed="12.36" duration="185.00" routeLength="1507.13" waitingTime="40.00" waitingCount="3" stopTime="0.00" timeLoss="67.75" rerouteNo="0" devices="tripinfo_10" vType="type1" speedFactor="0.93" vaporized=""/>
    <tripinfo id="20" depart="124.00" departLane="westTop___intersectionNW_0" departPos="5.10" departSpeed="0.00" departDelay="0.00" arrival="274.00" arrivalLane="intersectionS___intersectionSW_0" arrivalPos="292.00" arrivalSpeed="11.53" duration="150.00" routeLength="1501.76" waitingTime="8.00" waitingCount="1" stopTime="0.00" timeLoss="25.59" rerouteNo="0" devices="tripinfo_20" vType="type1" speedFactor="0.87" vaporized=""/>
    <tripinfo id="12" depart="103.00" departLane="intersectionE___intersectionCenter_0" departPos="5.10" departSpeed="0.00" departDelay="0.00" arrival="276.00" arrivalLane="intersectionNW___westTop_0" arrivalPos="292.00" arrivalSpeed="9.26" duration="173.00" routeLength="1200.52" waitingTime="26.00" waitingCount="3" stopTime="0.00" timeLoss="51.45" rerouteNo="0" devices="tripinfo_12" vType="type1" speedFactor="0.71" vaporized=""/>
    <tripinfo id="25" depart="135.00" departLane="intersectionNE___intersectionE_0" departPos="5.10" departSpeed="0.00" departDelay="0.00" arrival="278.00" arrivalLane="intersectionSE___intersectionE_0" arrivalPos="292.00" arrivalSpeed="12.42" duration="143.00" routeLength="1506.50" waitingTime="4.00" waitingCount="2" stopTime="0.00" timeLoss="25.40" rerouteNo="0" devices="tripinfo_25" vType="type1" speedFactor="0.92" vaporized=""/>
    <tripinfo id="46" depart="170.00" departLane="northMiddle___intersectionN_0" departPos="5.10" departSpeed="0.00" departDelay="0.00" arrival="280.00" arrivalLane="intersectionS___intersectionSE_0" arrivalPos="292.00" arrivalSpeed="13.57" duration="110.00" routeLength="1205.89" waitingTime="4.00" waitingCount="1" stopTime="0.00" timeLoss="20.21" rerouteNo="0" devices="tripinfo_46" vType="type1" speedFactor="0.98" vaporized=""/>
    <tripinfo id="42" depart="163.00" departLane="intersectionSE___intersectionS_0" departPos="5.10" departSpeed="0.00" departDelay="0.00" arrival="281.00" arrivalLane="intersectionW___intersectionSW_0" arrivalPos="292.00" arrivalSpeed="10.40" duration="118.00" routeLength="1200.31" waitingTime="3.00" waitingCount="1" stopTime="0.00" timeLoss="19.34" rerouteNo="0" devices="tripinfo_42" vType="type1" speedFactor="0.88" vaporized=""/>
    <tripinfo id="64" depart="201.00" departLane="intersectionCenter___intersectionE_0" departPos="5.10" departSpeed="0.00" departDelay="0.00" arrival="281.00" arrivalLane="intersectionSE___intersectionS_0" arrivalPos="292.00" arrivalSpeed="12.52" duration="80.00" routeLength="888.96" waitingTime="2.00" waitingCount="2" stopTime="0.00" timeLoss="15.38" rerouteNo="0" devices="tripinfo_64" vType="type1" speedFactor="1.00" vaporized=""/>
    <tripinfo id="22" depart="130.00" departLane="intersectionW___intersectionNW_0" departPos="5.10" departSpeed="0.00" departDelay="0.00" arrival="284.00" arrivalLane="intersectionSW___intersectionW_0" arrivalPos="292.00" arrivalSpeed="7.28" duration="154.00" routeLength="1797.42" waitingTime="3.00" waitingCount="1" stopTime="0.00" timeLoss="24.58" rerouteNo="0" devices="tripinfo_22" vType="type1" speedFactor="1.00" vaporized=""/>
    <tripinfo id="52" depart="183.00" departLane="intersectionSE___intersectionS_0" departPos="5.10" departSpeed="0.00" departDelay="0.00" arrival="284.00" arrivalLane="intersectionN___intersectionNE_0" arrivalPos="292.00" arrivalSpeed="6.79" duration="101.00" routeLength="1195.36" waitingTime="2.00" waitingCount="2" stopTime="0.00" timeLoss="19.00" rerouteNo="0" devices="tripinfo_52" vType="type1" speedFactor="1.05" vaporized=""/>
    <tripinfo id="80" depart="233.00" departLane="northMiddle___intersectionN_0" departPos="5.10" departSpeed="0.00" departDelay="0.00" arrival="285.00" arrivalLane="intersectionN___intersectionNW_0" arrivalPos="292.00" arrivalSpeed="8.20" duration="52.00" routeLength="587.93" waitingTime="5.00" waitingCount="1" stopTime="0.00" timeLoss="14.08" rerouteNo="0" devices="tripinfo_80" vType="type1" speedFactor="1.12" vaporized=""/>
    <tripinfo id="61" depart="200.00" departLane="intersectionW___intersectionCenter_0" departPos="5.10" departSpeed="0.00" departDelay="0.00" arrival="287.00" arrivalLane="intersectionCenter___intersectionS_0" arrivalPos="292.00" arrivalSpeed="14.39" duration="87.00" routeLength="587.93" waitingTime="41.00" waitingCount="1" stopTime="0.00" timeLoss="50.14" rerouteNo="0" devices="tripinfo_61" vType="type1" speedFactor="1.16" vaporized=""/>
    <tripinfo id="23" depart="132.00" departLane="westBottom___intersectionSW_0" departPos="5.10" departSpeed="0.00" departDelay="0.00" arrival="290.00" arrivalLane="intersectionNW___westTop_0" arrivalPos="292.00" arrivalSpeed="12.24" duration="158.00" routeLength="1205.68" waitingTime="44.00" waitingCount="2" stopTime="0.00" timeLoss="60.97" rerouteNo="0" devices="tripinfo_23" vType="type1" speedFactor="0.90" vaporized=""/>
    <tripinfo id="0" depart="13.00" departLane="intersectionCenter___intersectionN_0" departPos="5.10" departSpeed="0.00" departDelay="0.00" arrival="291.00" arrivalLane="intersectionS___intersectionSW_0" arrivalPos="292.00" arrivalSpeed="7.61" duration="278.00" routeLength="1802.79" waitingTime="120.00" waitingCount="2" stopTime="0.00" timeLoss="142.21" rerouteNo="0" devices="tripinfo_0" vType="type1" speedFactor="0.96" vaporized=""/>
    <tripinfo id="45" depart="168.00" departLane="westMiddle___intersectionW_0" departPos="5.10" departSpeed="0.00" departDelay="0.00" arrival="291.00" arrivalLane="intersectionCenter___intersectionE_0" arrivalPos="292.00" arrivalSpeed="11.90" duration="123.00" routeLength="899.70" waitingTime="44.00" waitingCount="1" stopTime="0.00" timeLoss="55.79" rerouteNo="0" devices="tripinfo_45" vType="type1" speedFactor="0.97" vaporized=""/>
    <tripinfo id="16" depart="116.00" departLane="intersectionE___intersectionCenter_0" departPos="5.10" departSpeed="0.00" departDelay="0.00" arrival="292.00" arrivalLane="intersectionN___intersectionCenter_0" arrivalPos="292.00" arrivalSpeed="10.83" duration="176.00" routeLength="1496.39" waitingTime="15.00" waitingCount="3" stopTime="0.00" timeLoss="41.63" rerouteNo="0" devices="tripinfo_16" vType="type1" speedFactor="0.81" vaporized=""/>
    <tripinfo id="37" depart="150.00" departLane="westTop___intersectionNW_0" departPos="5.10" departSpeed="0.00" departDelay="0.00" arrival="294.00" arrivalLane="intersectionSE___intersectionE_0" arrivalPos="292.00" arrivalSpeed="14.51" duration="144.00" routeLength="1813.11" waitingTime="0.00" waitingCount="0" stopTime="0.00" timeLoss="20.65" rerouteNo="0" devices="tripinfo_37" vType="type1" speedFactor="1.06" vaporized=""/>
    <tripinfo id="49" depart="177.00" departLane="intersectionSW___intersectionW_0" departPos="5.10" departSpeed="0.00" departDelay="0.00" arrival="296.00" arrivalLane="intersectionNW___westTop_0" arrivalPos="292.00" arrivalSpeed="10.54" duration="119.00" routeLength="899.49" waitingTime="25.00" waitingCount="2" stopTime="0.00" timeLoss="40.42" rerouteNo="0" devices="tripinfo_49" vType="type1" speedFactor="0.83" vaporized=""/>
    <tripinfo id="34" depart="148.00" departLane="intersectionSE___intersectionS_0" departPos="5.10" departSpeed="0.00" departDelay="0.00" arrival="298.00" arrivalLane="intersectionNW___northLeft_0" arrivalPos="292.00" arrivalSpeed="11.70" duration="150.00" routeLength="1507.13" waitingTime="4.00" waitingCount="1" stopTime="0.00" timeLoss="26.42" rerouteNo="0" devices="tripinfo_34" vType="type1" speedFactor="0.88" vaporized=""/>
    <tripinfo id="3" depart="39.00" departLane="intersectionS___intersectionSW_0" departPos="5.10" departSpeed="0.00" departDelay="0.00" arrival="299.00" arrivalLane="intersectionS___intersectionCenter_0" arrivalPos="292.00" arrivalSpeed="11.20" duration="260.00" routeLength="2098.45" waitingTime="44.00" waitingCount="4" stopTime="0.00" timeLoss="79.86" rerouteNo="0" devices="tripinfo_3" vType="type1" speedFactor="0.84" vaporized=""/>
    <tripinfo id="60" depart="200.00" departLane="intersectionE___intersectionSE_0" departPos="5.10" departSpeed="0.00" departDelay="0.00" arrival="300.00" arrivalLane="intersectionS___intersectionSW_0" arrivalPos="292.00" arrivalSpeed="10.32" duration="100.00" routeLength="894.33" waitingTime="12.00" waitingCount="1" stopTime="0.00" timeLoss="26.50" rerouteNo="0" devices="tripinfo_60" vType="type1" speedFactor="0.88" vaporized=""/>
    <tripinfo id="68" depart="206.00" departLane="intersectionW___intersectionNW_0" departPos="5.10" departSpeed="0.00" departDelay="0.00" arrival="302.00" arrivalLane="intersectionN___intersectionCenter_0" arrivalPos="292.00" arrivalSpeed="10.89" duration="96.00" routeLength="888.96" waitingTime="2.00" waitingCount="2" stopTime="0.00" timeLoss="19.09" rerouteNo="0" devices="tripinfo_68" vType="type1" speedFactor="0.84" vaporized=""/>
    <tripinfo id="11" depart="92.00" departLane="westBottom___intersectionSW_0" departPos="7.10" departSpeed="0.00" departDelay="0.00" arrival="308.00" arrivalLane="intersectionNW___intersectionW_0" arrivalPos="292.00" arrivalSpeed="12.27" duration="216.00" routeLength="1816.27" waitingTime="56.00" waitingCount="3" stopTime="0.00" timeLoss="84.58" rerouteNo="0" devices="tripinfo_11" vType="type2" speedFactor="1.00" vaporized=""/>
    <tripinfo id="76" depart="225.00" departLane="intersectionCenter___intersectionS_0" departPos="5.10" departSpeed="0.00" departDelay="0.00" arrival="309.00" arrivalLane="intersectionSW___intersectionW_0" arrivalPos="292.00" arrivalSpeed="10.42" duration="84.00" routeLength="888.96" waitingTime="1.00" waitingCount="1" stopTime="0.00" timeLoss="13.96" rerouteNo="0" devices="tripinfo_76" vType="type1" speedFactor="0.92" vaporized=""/>
    <tripinfo id="50" depart="180.00" departLane="eastTop___intersectionNE_0" departPos="5.10" departSpeed="0.00" departDelay="0.00" arrival="310.00" arrivalLane="intersectionS___southMiddle_0" arrivalPos="292.00" arrivalSpeed="12.27" duration="130.00" routeLength="1512.29" waitingTime="0.00" waitingCount="0" stopTime="0.00" timeLoss="12.97" rerouteNo="0" devices="tripinfo_50" vType="type1" speedFactor="0.94" vaporized=""/>
    <tripinfo id="77" depart="227.00" departLane="intersectionCenter___intersectionS_0" departPos="5.10" departSpeed="0.00" departDelay="2.00" arrival="312.00" arrivalLane="intersectionSW___intersectionW_0" arrivalPos="292.00" arrivalSpeed="13.53" duration="85.00" routeLength="888.96" waitingTime="2.00" waitingCount="2" stopTime="0.00" timeLoss="24.45" rerouteNo="0" devices="tripinfo_77" vType="type1" speedFactor="1.06" vaporized=""/>
    <tripinfo id="17" depart="120.00" departLane="intersectionNE___intersectionE_0" departPos="5.10" departSpeed="0.00" departDelay="0.00" arrival="313.00" arrivalLane="intersectionCenter___intersectionE_0" arrivalPos="292.00" arrivalSpeed="13.55" duration="193.00" routeLength="1496.39" waitingTime="64.00" waitingCount="2" stopTime="0.00" timeLoss="82.84" rerouteNo="0" devices="tripinfo_17" vType="type1" speedFactor="0.98" vaporized=""/>
    <tripinfo id="84" depart="236.00" departLane="eastTop___intersectionNE_0" departPos="5.10" departSpeed="0.00" departDelay="0.00" arrival="317.00" arrivalLane="intersectionNE___intersectionN_0" arrivalPos="292.00" arrivalSpeed="6.20" duration="81.00" routeLength="593.30" waitingTime="20.00" waitingCount="2" stopTime="0.00" timeLoss="32.50" rerouteNo="0" devices="tripinfo_84" vType="type1" speedFactor="0.88" vaporized=""/>
    <tripinfo id="38" depart="152.00" departLane="intersectionN___intersectionCenter_0" departPos="5.10" departSpeed="0.00" departDelay="0.00" arrival="327.00" arrivalLane="intersectionE___intersectionNE_0" arrivalPos="292.00" arrivalSpeed="6.88" duration="175.00" routeLength="899.28" waitingTime="92.00" waitingCount="4" stopTime="0.00" timeLoss="118.01" rerouteNo="0" devices="tripinfo_38" vType="type1" speedFactor="1.14" vaporized=""/>
    <tripinfo id="19" depart="122.00" departLane="intersectionS___intersectionSW_0" departPos="5.10" departSpeed="0.00" departDelay="0.00" arrival="329.00" arrivalLane="intersectionE___intersectionNE_0" arrivalPos="292.00" arrivalSpeed="10.16" duration="207.00" routeLength="1501.55" waitingTime="70.00" waitingCount="3" stopTime="0.00" timeLoss="92.44" rerouteNo="0" devices="tripinfo_19" vType="type1" speedFactor="0.95" vaporized=""/>
    <tripinfo id="40" depart="156.00" departLane="northLeft___intersectionNW_0" departPos="5.10" departSpeed="0.00" departDelay="0.00" arrival="330.00" arrivalLane="intersectionN___northMiddle_0" arrivalPos="292.00" arrivalSpeed="13.11" duration="174.00" routeLength="899.28" waitingTime="94.00" waitingCount="2" stopTime="0.00" timeLoss="108.63" rerouteNo="0" devices="tripinfo_40" vType="type1" speedFactor="1.00" vaporized=""/>
    <tripinfo id="62" depart="201.00" departLane="eastBottom___intersectionSE_0" departPos="5.10" departSpeed="0.00" departDelay="0.00" arrival="330.00" arrivalLane="intersectionCenter___intersectionE_0" arrivalPos="292.00" arrivalSpeed="10.93" duration="129.00" routeLength="1195.36" waitingTime="14.00" waitingCount="3" stopTime="0.00" timeLoss="35.91" rerouteNo="0" devices="tripinfo_62" vType="type1" speedFactor="0.92" vaporized=""/>
    <tripinfo id="110" depart="279.00" departLane="intersectionCenter___intersectionE_0" departPos="5.10" departSpeed="0.00" departDelay="0.00" arrival="331.00" arrivalLane="intersectionE___intersectionNE_0" arrivalPos="292.00" arrivalSpeed="12.55" duration="52.00" routeLength="593.09" waitingTime="0.00" waitingCount="0" stopTime="0.00" timeLoss="9.11" rerouteNo="0" devices="tripinfo_110" vType="type1" speedFactor="1.01" vaporized=""/>
    <tripinfo id="41" depart="163.00" departLane="southLeft___intersectionSW_0" departPos="5.10" departSpeed="0.00" departDelay="0.00" arrival="339.00" arrivalLane="intersectionNE___eastTop_0" arrivalPos="292.00" arrivalSpeed="13.77" duration="176.00" routeLength="1813.53" waitingTime="22.00" waitingCount="2" stopTime="0.00" timeLoss="49.14" rerouteNo="0" devices="tripinfo_41" vType="type1" speedFactor="1.03" vaporized=""/>
    <tripinfo id="59" depart="199.00" departLane="northMiddle___intersectionN_0" departPos="5.10" departSpeed="0.00" departDelay="0.00" arrival="340.00" arrivalLane="intersectionS___intersectionSE_0" arrivalPos="292.00" arrivalSpeed="12.05" duration="141.00" routeLength="1205.89" waitingTime="29.00" waitingCount="2" stopTime="0.00" timeLoss="50.22" rerouteNo="0" devices="tripinfo_59" vType="type1" speedFactor="0.96" vaporized=""/>
    <tripinfo id="79" depart="233.00" departLane="intersectionE___intersectionCenter_0" departPos="5.10" departSpeed="0.00" departDelay="0.00" arrival="344.00" arrivalLane="intersectionW___westMiddle_0" arrivalPos="292.00" arrivalSpeed="14.59" duration="111.00" routeLength="899.70" waitingTime="33.00" waitingCount="3" stopTime="0.00" timeLoss="52.76" rerouteNo="0" devices="tripinfo_79" vType="type1" speedFactor="1.11" vaporized=""/>
    <tripinfo id="85" depart="240.00" departLane="westMiddle___intersectionW_0" departPos="5.10" departSpeed="0.00" departDelay="0.00" arrival="346.00" arrivalLane="intersectionS___southMiddle_0" arrivalPos="292.00" arrivalSpeed="13.60" duration="106.00" routeLength="1200.73" waitingTime="7.00" waitingCount="1" stopTime="0.00" timeLoss="20.54" rerouteNo="0" devices="tripinfo_85" vType="type1" speedFactor="1.02" vaporized=""/>
    <tripinfo id="75" depart="219.00" departLane="eastBottom___intersectionSE_0" departPos="5.10" departSpeed="0.00" departDelay="0.00" arrival="349.00" arrivalLane="intersectionCenter___intersectionE_0" arrivalPos="292.00" arrivalSpeed="12.85" duration="130.00" routeLength="1195.36" waitingTime="12.00" waitingCount="1" stopTime="0.00" timeLoss="39.43" rerouteNo="0" devices="tripinfo_75" vType="type1" speedFactor="0.95" vaporized=""/>
    <tripinfo id="43" depart="164.00" departLane="intersectionSW___intersectionW_0" departPos="5.10" departSpeed="0.00" departDelay="0.00" arrival="350.00" arrivalLane="intersectionN___intersectionCenter_0" arrivalPos="292.00" arrivalSpeed="7.92" duration="186.00" routeLength="1195.36" waitingTime="67.00" waitingCount="4" stopTime="0.00" timeLoss="95.24" rerouteNo="0" devices="tripinfo_43" vType="type1" speedFactor="0.95" vaporized=""/>
    <tripinfo id="105" depart="272.00" departLane="intersectionW___intersectionCenter_0" departPos="5.10" departSpeed="0.00" departDelay="0.00" arrival="350.00" arrivalLane="intersectionS___intersectionSW_0" arrivalPos="292.00" arrivalSpeed="12.87" duration="78.00" routeLength="888.96" waitingTime="2.00" waitingCount="1" stopTime="0.00" timeLoss="14.83" rerouteNo="0" devices="tripinfo_105" vType="type1" speedFactor="1.02" vaporized=""/>
    <tripinfo id="27" depart="139.00" departLane="intersectionSE___intersectionS_0" departPos="5.10" departSpeed="0.00" departDelay="0.00" arrival="351.00" arrivalLane="intersectionSE___intersectionE_0" arrivalPos="292.00" arrivalSpeed="12.40" duration="212.00" routeLength="2108.77" waitingTime="18.00" waitingCount="3" stopTime="0.00" timeLoss="52.63" rerouteNo="0" devices="tripinfo_27" vType="type1" speedFactor="0.95" vaporized=""/>
    <tripinfo id="92" depart="252.00" departLane="intersectionSW___intersectionW_0" departPos="5.10" departSpeed="0.00" departDelay="0.00" arrival="353.00" arrivalLane="intersectionE___intersectionNE_0" arrivalPos="292.00" arrivalSpeed="15.36" duration="101.00" routeLength="1200.52" waitingTime="1.00" waitingCount="1" stopTime="0.00" timeLoss="24.77" rerouteNo="0" devices="tripinfo_92" vType="type1" speedFactor="1.14" vaporized=""/>
    <tripinfo id="82" depart="235.00" departLane="intersectionN___intersectionCenter_0" departPos="7.10" departSpeed="0.00" departDelay="0.00" arrival="355.00" arrivalLane="intersectionSE___eastBottom_0" arrivalPos="292.00" arrivalSpeed="13.38" duration="120.00" routeLength="1203.89" waitingTime="21.00" waitingCount="1" stopTime="0.00" timeLoss="33.31" rerouteNo="0" devices="tripinfo_82" vType="type2" speedFactor="1.00" vaporized=""/>