<?xml version="1.0" encoding="UTF-8"?>

<!-- generated on 2024-03-20 08:18:03 by Eclipse SUMO libsumo Version 1.19.0
<configuration xmlns:xsi="http://www.w3.org/2001/XMLSchema-instance" xsi:noNamespaceSchemaLocation="http://sumo.dlr.de/xsd/libsumoConfiguration.xsd">

    <input>
        <net-file value="./nets/3x3/network.net.xml"/>
        <route-files value="./nets/3x3/generated_route.rou.xml"/>
    </input>

    <output>
        <queue-output value="./DDQN/runs/3x3/run_10/QueueInfo/episode_8"/>
        <summary-output value="./DDQN/runs/3x3/run_10/Summary/episode_8"/>
        <tripinfo-output value="./DDQN/runs/3x3/run_10/VehicleInfo/episode_8"/>
    </output>

    <processing>
        <waiting-time-memory value="10000"/>
    </processing>

    <report>
        <no-warnings value="true"/>
        <log value="./nets/3x3/sumo_log.txt"/>
        <no-step-log value="true"/>
    </report>

    <emissions>
        <phemlight-path value="./nets/3x3/./PHEMlight/"/>
    </emissions>

    <random_number>
        <random value="true"/>
    </random_number>

</configuration>
-->

<tripinfos xmlns:xsi="http://www.w3.org/2001/XMLSchema-instance" xsi:noNamespaceSchemaLocation="http://sumo.dlr.de/xsd/tripinfo_file.xsd">
    <tripinfo id="3" depart="46.00" departLane="eastTop___intersectionNE_0" departPos="5.10" departSpeed="0.00" departDelay="0.00" arrival="122.00" arrivalLane="intersectionN___intersectionNW_0" arrivalPos="292.00" arrivalSpeed="12.26" duration="76.00" routeLength="899.70" waitingTime="0.00" waitingCount="0" stopTime="0.00" timeLoss="7.67" rerouteNo="0" devices="tripinfo_3" vType="type1" speedFactor="0.95" vaporized=""/>
    <tripinfo id="7" depart="81.00" departLane="intersectionCenter___intersectionN_0" departPos="5.10" departSpeed="0.00" departDelay="0.00" arrival="147.00" arrivalLane="intersectionNE___eastTop_0" arrivalPos="292.00" arrivalSpeed="13.43" duration="66.00" routeLength="894.33" waitingTime="0.00" waitingCount="0" stopTime="0.00" timeLoss="5.54" rerouteNo="0" devices="tripinfo_7" vType="type1" speedFactor="1.07" vaporized=""/>
    <tripinfo id="9" depart="94.00" departLane="intersectionSW___intersectionW_0" departPos="5.10" departSpeed="0.00" departDelay="0.00" arrival="158.00" arrivalLane="intersectionNW___northLeft_0" arrivalPos="292.00" arrivalSpeed="13.51" duration="64.00" routeLength="899.70" waitingTime="0.00" waitingCount="0" stopTime="0.00" timeLoss="5.59" rerouteNo="0" devices="tripinfo_9" vType="type1" speedFactor="1.12" vaporized=""/>
    <tripinfo id="2" depart="45.00" departLane="intersectionSW___intersectionS_0" departPos="5.10" departSpeed="0.00" departDelay="0.00" arrival="165.00" arrivalLane="intersectionNW___intersectionW_0" arrivalPos="292.00" arrivalSpeed="14.69" duration="120.00" routeLength="1511.87" waitingTime="4.00" waitingCount="1" stopTime="0.00" timeLoss="18.28" rerouteNo="0" devices="tripinfo_2" vType="type1" speedFactor="1.07" vaporized=""/>
    <tripinfo id="23" depart="121.00" departLane="intersectionSE___intersectionS_0" departPos="5.10" departSpeed="0.00" departDelay="0.00" arrival="171.00" arrivalLane="intersectionS___southMiddle_0" arrivalPos="292.00" arrivalSpeed="11.82" duration="50.00" routeLength="593.09" waitingTime="0.00" waitingCount="0" stopTime="0.00" timeLoss="5.72" rerouteNo="0" devices="tripinfo_23" vType="type1" speedFactor="0.97" vaporized=""/>
    <tripinfo id="4" depart="50.00" departLane="eastMiddle___intersectionE_0" departPos="5.10" departSpeed="0.00" departDelay="0.00" arrival="188.00" arrivalLane="intersectionNW___westTop_0" arrivalPos="292.00" arrivalSpeed="13.94" duration="138.00" routeLength="1506.92" waitingTime="19.00" waitingCount="2" stopTime="0.00" timeLoss="39.25" rerouteNo="0" devices="tripinfo_4" vType="type1" speedFactor="1.11" vaporized=""/>
    <tripinfo id="17" depart="109.00" departLane="eastTop___intersectionNE_0" departPos="5.10" departSpeed="0.00" departDelay="0.00" arrival="188.00" arrivalLane="intersectionE___intersectionSE_0" arrivalPos="292.00" arrivalSpeed="12.61" duration="79.00" routeLength="899.49" waitingTime="0.00" waitingCount="0" stopTime="0.00" timeLoss="9.05" rerouteNo="0" devices="tripinfo_17" vType="type1" speedFactor="0.94" vaporized=""/>
    <tripinfo id="1" depart="32.00" departLane="intersectionS___intersectionSW_0" departPos="5.10" departSpeed="0.00" departDelay="0.00" arrival="209.00" arrivalLane="intersectionCenter___intersectionS_0" arrivalPos="292.00" arrivalSpeed="7.39" duration="177.00" routeLength="1189.99" waitingTime="65.00" waitingCount="2" stopTime="0.00" timeLoss="80.46" rerouteNo="0" devices="tripinfo_1" vType="type1" speedFactor="0.89" vaporized=""/>
    <tripinfo id="36" depart="155.00" departLane="intersectionS___intersectionSW_0" departPos="5.10" departSpeed="0.00" departDelay="0.00" arrival="222.00" arrivalLane="intersectionW___westMiddle_0" arrivalPos="292.00" arrivalSpeed="13.30" duration="67.00" routeLength="894.12" waitingTime="0.00" waitingCount="0" stopTime="0.00" timeLoss="6.58" rerouteNo="0" devices="tripinfo_36" vType="type1" speedFactor="1.08" vaporized=""/>
    <tripinfo id="10" depart="96.00" departLane="westTop___intersectionNW_0" departPos="5.10" departSpeed="0.00" departDelay="0.00" arrival="230.00" arrivalLane="intersectionCenter___intersectionN_0" arrivalPos="292.00" arrivalSpeed="11.67" duration="134.00" routeLength="1200.31" waitingTime="26.00" waitingCount="3" stopTime="0.00" timeLoss="46.54" rerouteNo="0" devices="tripinfo_10" vType="type1" speedFactor="0.99" vaporized=""/>
    <tripinfo id="56" depart="210.00" departLane="intersectionSE___intersectionS_0" departPos="5.10" departSpeed="0.00" departDelay="0.00" arrival="232.00" arrivalLane="intersectionSE___intersectionS_0" arrivalPos="292.00" arrivalSpeed="13.02" duration="22.00" routeLength="286.90" waitingTime="0.00" waitingCount="0" stopTime="0.00" timeLoss="2.91" rerouteNo="0" devices="tripinfo_56" vType="type1" speedFactor="1.11" vaporized=""/>
    <tripinfo id="5" depart="70.00" departLane="eastTop___intersectionNE_0" departPos="5.10" departSpeed="0.00" departDelay="0.00" arrival="237.00" arrivalLane="intersectionCenter___intersectionW_0" arrivalPos="292.00" arrivalSpeed="5.93" duration="167.00" routeLength="1200.52" waitingTime="54.00" waitingCount="5" stopTime="0.00" timeLoss="84.31" rerouteNo="0" devices="tripinfo_5" vType="type1" speedFactor="1.05" vaporized=""/>
    <tripinfo id="18" depart="109.00" departLane="intersectionW___intersectionCenter_0" departPos="5.10" departSpeed="0.00" departDelay="0.00" arrival="237.00" arrivalLane="intersectionNW___westTop_0" arrivalPos="292.00" arrivalSpeed="10.99" duration="128.00" routeLength="1205.68" waitingTime="16.00" waitingCount="3" stopTime="0.00" timeLoss="34.80" rerouteNo="0" devices="tripinfo_18" vType="type1" speedFactor="0.94" vaporized=""/>
    <tripinfo id="6" depart="78.00" departLane="intersectionN___intersectionNE_0" departPos="5.10" departSpeed="0.00" departDelay="0.00" arrival="238.00" arrivalLane="intersectionS___intersectionSE_0" arrivalPos="292.00" arrivalSpeed="13.71" duration="160.00" routeLength="1501.34" waitingTime="36.00" waitingCount="1" stopTime="0.00" timeLoss="57.95" rerouteNo="0" devices="tripinfo_6" vType="type1" speedFactor="1.07" vaporized=""/>
    <tripinfo id="13" depart="99.00" departLane="intersectionNE___intersectionN_0" departPos="7.10" departSpeed="0.00" departDelay="0.00" arrival="239.00" arrivalLane="intersectionS___intersectionSE_0" arrivalPos="292.00" arrivalSpeed="13.75" duration="140.00" routeLength="1203.68" waitingTime="28.00" waitingCount="2" stopTime="0.00" timeLoss="53.33" rerouteNo="0" devices="tripinfo_13" vType="type2" speedFactor="1.00" vaporized=""/>
    <tripinfo id="37" depart="156.00" departLane="northRight___intersectionNE_0" departPos="5.10" departSpeed="0.00" departDelay="0.00" arrival="245.00" arrivalLane="intersectionNE___intersectionN_0" arrivalPos="292.00" arrivalSpeed="10.46" duration="89.00" routeLength="587.93" waitingTime="43.00" waitingCount="1" stopTime="0.00" timeLoss="52.79" rerouteNo="0" devices="tripinfo_37" vType="type1" speedFactor="1.19" vaporized=""/>
    <tripinfo id="11" depart="97.00" departLane="southLeft___intersectionSW_0" departPos="5.10" departSpeed="0.00" departDelay="0.00" arrival="247.00" arrivalLane="intersectionNE___intersectionN_0" arrivalPos="292.00" arrivalSpeed="12.96" duration="150.00" routeLength="1813.11" waitingTime="1.00" waitingCount="1" stopTime="0.00" timeLoss="21.49" rerouteNo="0" devices="tripinfo_11" vType="type1" speedFactor="1.02" vaporized=""/>
    <tripinfo id="63" depart="227.00" departLane="intersectionE___intersectionCenter_0" departPos="5.10" departSpeed="0.00" departDelay="0.00" arrival="253.00" arrivalLane="intersectionE___intersectionCenter_0" arrivalPos="292.00" arrivalSpeed="10.93" duration="26.00" routeLength="286.90" waitingTime="0.00" waitingCount="0" stopTime="0.00" timeLoss="3.27" rerouteNo="0" devices="tripinfo_63" vType="type1" speedFactor="0.92" vaporized=""/>
    <tripinfo id="45" depart="187.00" departLane="intersectionSW___intersectionS_0" departPos="7.10" departSpeed="0.00" departDelay="2.00" arrival="255.00" arrivalLane="intersectionS___southMiddle_0" arrivalPos="292.00" arrivalSpeed="13.75" duration="68.00" routeLength="585.93" waitingTime="11.00" waitingCount="1" stopTime="0.00" timeLoss="25.65" rerouteNo="0" devices="tripinfo_45" vType="type2" speedFactor="1.00" vaporized=""/>
    <tripinfo id="8" depart="90.00" departLane="intersectionS___intersectionSE_0" departPos="5.10" departSpeed="0.00" departDelay="0.00" arrival="256.00" arrivalLane="intersectionW___intersectionSW_0" arrivalPos="292.00" arrivalSpeed="14.24" duration="166.00" routeLength="1511.87" waitingTime="50.00" waitingCount="2" stopTime="0.00" timeLoss="67.24" rerouteNo="0" devices="tripinfo_8" vType="type1" speedFactor="1.11" vaporized=""/>
    <tripinfo id="32" depart="150.00" departLane="intersectionSW___intersectionW_0" departPos="5.10" departSpeed="0.00" departDelay="0.00" arrival="266.00" arrivalLane="intersectionN___intersectionCenter_0" arrivalPos="292.00" arrivalSpeed="8.67" duration="116.00" routeLength="1195.36" waitingTime="13.00" waitingCount="2" stopTime="0.00" timeLoss="37.00" rerouteNo="0" devices="tripinfo_32" vType="type1" speedFactor="1.09" vaporized=""/>
    <tripinfo id="57" depart="211.00" departLane="intersectionW___intersectionCenter_0" departPos="5.10" departSpeed="0.00" departDelay="0.00" arrival="269.00" arrivalLane="intersectionCenter___intersectionN_0" arrivalPos="292.00" arrivalSpeed="12.84" duration="58.00" routeLength="593.09" waitingTime="4.00" waitingCount="1" stopTime="0.00" timeLoss="15.59" rerouteNo="0" devices="tripinfo_57" vType="type1" speedFactor="1.02" vaporized=""/>
    <tripinfo id="42" depart="178.00" departLane="intersectionCenter___intersectionN_0" departPos="5.10" departSpeed="0.00" departDelay="0.00" arrival="271.00" arrivalLane="intersectionNE___eastTop_0" arrivalPos="292.00" arrivalSpeed="11.72" duration="93.00" routeLength="894.33" waitingTime="2.00" waitingCount="1" stopTime="0.00" timeLoss="17.16" rerouteNo="0" devices="tripinfo_42" vType="type1" speedFactor="0.85" vaporized=""/>
    <tripinfo id="25" depart="124.00" departLane="westTop___intersectionNW_0" departPos="5.10" departSpeed="0.00" departDelay="0.00" arrival="272.00" arrivalLane="intersectionE___eastMiddle_0" arrivalPos="292.00" arrivalSpeed="10.43" duration="148.00" routeLength="1506.92" waitingTime="7.00" waitingCount="2" stopTime="0.00" timeLoss="25.34" rerouteNo="0" devices="tripinfo_25" vType="type1" speedFactor="0.89" vaporized=""/>
    <tripinfo id="38" depart="161.00" departLane="intersectionNW___intersectionW_0" departPos="5.10" departSpeed="0.00" departDelay="0.00" arrival="272.00" arrivalLane="intersectionSW___intersectionS_0" arrivalPos="292.00" arrivalSpeed="10.06" duration="111.00" routeLength="899.49" waitingTime="20.00" waitingCount="1" stopTime="0.00" timeLoss="33.55" rerouteNo="0" devices="tripinfo_38" vType="type1" speedFactor="0.84" vaporized=""/>
    <tripinfo id="15" depart="102.00" departLane="intersectionS___intersectionSW_0" departPos="7.10" departSpeed="0.00" departDelay="0.00" arrival="287.00" arrivalLane="intersectionNW___intersectionW_0" arrivalPos="292.00" arrivalSpeed="13.27" duration="185.00" routeLength="1805.53" waitingTime="26.00" waitingCount="4" stopTime="0.00" timeLoss="54.11" rerouteNo="0" devices="tripinfo_15" vType="type2" speedFactor="1.00" vaporized=""/>
    <tripinfo id="19" depart="113.00" departLane="intersectionNE___intersectionN_0" departPos="7.10" departSpeed="0.00" departDelay="0.00" arrival="288.00" arrivalLane="intersectionSE___intersectionE_0" arrivalPos="292.00" arrivalSpeed="13.02" duration="175.00" routeLength="1509.87" waitingTime="33.00" waitingCount="3" stopTime="0.00" timeLoss="65.45" rerouteNo="0" devices="tripinfo_19" vType="type2" speedFactor="1.00" vaporized=""/>
    <tripinfo id="55" depart="208.00" departLane="westMiddle___intersectionW_0" departPos="5.10" departSpeed="0.00" departDelay="0.00" arrival="288.00" arrivalLane="intersectionSW___intersectionS_0" arrivalPos="292.00" arrivalSpeed="11.65" duration="80.00" routeLength="894.12" waitingTime="1.00" waitingCount="1" stopTime="0.00" timeLoss="17.56" rerouteNo="0" devices="tripinfo_55" vType="type1" speedFactor="1.04" vaporized=""/>
    <tripinfo id="59" depart="219.00" departLane="southMiddle___intersectionS_0" departPos="5.10" departSpeed="0.00" departDelay="0.00" arrival="288.00" arrivalLane="intersectionS___intersectionCenter_0" arrivalPos="292.00" arrivalSpeed="11.73" duration="69.00" routeLength="593.30" waitingTime="15.00" waitingCount="1" stopTime="0.00" timeLoss="24.59" rerouteNo="0" devices="tripinfo_59" vType="type1" speedFactor="0.98" vaporized=""/>
    <tripinfo id="43" depart="185.00" departLane="intersectionN___intersectionCenter_0" departPos="5.10" departSpeed="0.00" departDelay="1.00" arrival="291.00" arrivalLane="intersectionS___southMiddle_0" arrivalPos="292.00" arrivalSpeed="14.79" duration="106.00" routeLength="899.70" waitingTime="16.00" waitingCount="2" stopTime="0.00" timeLoss="46.31" rerouteNo="0" devices="tripinfo_43" vType="type1" speedFactor="1.09" vaporized=""/>
    <tripinfo id="14" depart="101.00" departLane="intersectionCenter___intersectionW_0" departPos="5.10" departSpeed="0.00" departDelay="0.00" arrival="292.00" arrivalLane="intersectionSE___eastBottom_0" arrivalPos="292.00" arrivalSpeed="13.13" duration="191.00" routeLength="1512.08" waitingTime="47.00" waitingCount="4" stopTime="0.00" timeLoss="77.49" rerouteNo="0" devices="tripinfo_14" vType="type1" speedFactor="0.96" vaporized=""/>
    <tripinfo id="12" depart="99.00" departLane="intersectionCenter___intersectionS_0" departPos="5.10" departSpeed="0.00" departDelay="0.00" arrival="295.00" arrivalLane="intersectionE___eastMiddle_0" arrivalPos="292.00" arrivalSpeed="11.05" duration="196.00" routeLength="1200.31" waitingTime="78.00" waitingCount="3" stopTime="0.00" timeLoss="98.45" rerouteNo="0" devices="tripinfo_12" vType="type1" speedFactor="0.89" vaporized=""/>
    <tripinfo id="28" depart="137.00" departLane="eastMiddle___intersectionE_0" departPos="5.10" departSpeed="0.00" departDelay="0.00" arrival="297.00" arrivalLane="intersectionSW___intersectionS_0" arrivalPos="292.00" arrivalSpeed="9.83" duration="160.00" routeLength="1512.08" waitingTime="19.00" waitingCount="2" stopTime="0.00" timeLoss="45.31" rerouteNo="0" devices="tripinfo_28" vType="type1" speedFactor="0.95" vaporized=""/>
    <tripinfo id="58" depart="215.00" departLane="southRight___intersectionSE_0" departPos="5.10" departSpeed="0.00" departDelay="0.00" arrival="301.00" arrivalLane="intersectionS___intersectionCenter_0" arrivalPos="292.00" arrivalSpeed="10.69" duration="86.00" routeLength="894.12" waitingTime="1.00" waitingCount="1" stopTime="0.00" timeLoss="12.67" rerouteNo="0" devices="tripinfo_58" vType="type1" speedFactor="0.88" vaporized=""/>
    <tripinfo id="0" depart="16.00" departLane="intersectionNE___intersectionN_0" departPos="5.10" departSpeed="0.00" departDelay="0.00" arrival="305.00" arrivalLane="intersectionE___intersectionCenter_0" arrivalPos="292.00" arrivalSpeed="8.76" duration="289.00" routeLength="1818.06" waitingTime="124.00" waitingCount="4" stopTime="0.00" timeLoss="150.89" rerouteNo="0" devices="tripinfo_0" vType="type1" speedFactor="0.95" vaporized=""/>
    <tripinfo id="71" depart="239.00" departLane="southLeft___intersectionSW_0" departPos="5.10" departSpeed="0.00" departDelay="0.00" arrival="307.00" arrivalLane="intersectionW___westMiddle_0" arrivalPos="292.00" arrivalSpeed="13.62" duration="68.00" routeLength="899.49" waitingTime="0.00" waitingCount="0" stopTime="0.00" timeLoss="10.65" rerouteNo="0" devices="tripinfo_71" vType="type1" speedFactor="1.15" vaporized=""/>
    <tripinfo id="75" depart="244.00" departLane="northRight___intersectionNE_0" departPos="5.10" departSpeed="0.00" departDelay="0.00" arrival="310.00" arrivalLane="intersectionE___intersectionCenter_0" arrivalPos="292.00" arrivalSpeed="13.70" duration="66.00" routeLength="894.33" waitingTime="0.00" waitingCount="0" stopTime="0.00" timeLoss="6.41" rerouteNo="0" devices="tripinfo_75" vType="type1" speedFactor="1.08" vaporized=""/>
    <tripinfo id="61" depart="222.00" departLane="intersectionCenter___intersectionE_0" departPos="7.10" departSpeed="0.00" departDelay="0.00" arrival="312.00" arrivalLane="intersectionSE___intersectionS_0" arrivalPos="292.00" arrivalSpeed="6.84" duration="90.00" routeLength="886.96" waitingTime="6.00" waitingCount="1" stopTime="0.00" timeLoss="25.91" rerouteNo="0" devices="tripinfo_61" vType="type2" speedFactor="1.00" vaporized=""/>
    <tripinfo id="65" depart="228.00" departLane="eastBottom___intersectionSE_0" departPos="5.10" departSpeed="0.00" departDelay="0.00" arrival="314.00" arrivalLane="intersectionE___intersectionCenter_0" arrivalPos="292.00" arrivalSpeed="14.24" duration="86.00" routeLength="894.12" waitingTime="9.00" waitingCount="3" stopTime="0.00" timeLoss="25.47" rerouteNo="0" devices="tripinfo_65" vType="type1" speedFactor="1.08" vaporized=""/>
    <tripinfo id="67" depart="234.00" departLane="eastBottom___intersectionSE_0" departPos="5.10" departSpeed="0.00" departDelay="0.00" arrival="316.00" arrivalLane="intersectionS___southMiddle_0" arrivalPos="292.00" arrivalSpeed="10.61" duration="82.00" routeLength="899.49" waitingTime="0.00" waitingCount="0" stopTime="0.00" timeLoss="12.05" rerouteNo="0" devices="tripinfo_67" vType="type1" speedFactor="0.93" vaporized=""/>
    <tripinfo id="52" depart="202.00" departLane="intersectionS___intersectionCenter_0" departPos="7.10" departSpeed="0.00" departDelay="0.00" arrival="317.00" arrivalLane="intersectionNE___intersectionE_0" arrivalPos="292.00" arrivalSpeed="12.47" duration="115.00" routeLength="1193.36" waitingTime="9.00" waitingCount="3" stopTime="0.00" timeLoss="28.35" rerouteNo="0" devices="tripinfo_52" vType="type2" speedFactor="1.00" vaporized=""/>
    <tripinfo id="34" depart="153.00" departLane="intersectionSE___intersectionE_0" departPos="5.10" departSpeed="0.00" departDelay="0.00" arrival="318.00" arrivalLane="intersectionSE___southRight_0" arrivalPos="292.00" arrivalSpeed="12.68" duration="165.00" routeLength="1506.50" waitingTime="33.00" waitingCount="2" stopTime="0.00" timeLoss="59.58" rerouteNo="0" devices="tripinfo_34" vType="type1" speedFactor="1.03" vaporized=""/>
    <tripinfo id="46" depart="187.00" departLane="northRight___intersectionNE_0" departPos="5.10" departSpeed="0.00" departDelay="0.00" arrival="319.00" arrivalLane="intersectionS___southMiddle_0" arrivalPos="292.00" arrivalSpeed="13.49" duration="132.00" routeLength="1506.92" waitingTime="7.00" waitingCount="2" stopTime="0.00" timeLoss="27.40" rerouteNo="0" devices="tripinfo_46" vType="type1" speedFactor="1.04" vaporized=""/>
    <tripinfo id="68" depart="234.00" departLane="intersectionS___intersectionSE_0" departPos="5.10" departSpeed="0.00" departDelay="0.00" arrival="323.00" arrivalLane="intersectionE___intersectionCenter_0" arrivalPos="292.00" arrivalSpeed="12.52" duration="89.00" routeLength="899.28" waitingTime="6.00" waitingCount="2" stopTime="0.00" timeLoss="22.39" rerouteNo="0" devices="tripinfo_68" vType="type1" speedFactor="0.97" vaporized=""/>
    <tripinfo id="83" depart="258.00" departLane="intersectionSW___intersectionS_0" departPos="5.10" departSpeed="0.00" departDelay="1.00" arrival="323.00" arrivalLane="intersectionS___intersectionCenter_0" arrivalPos="292.00" arrivalSpeed="14.37" duration="65.00" routeLength="593.09" waitingTime="0.00" waitingCount="0" stopTime="0.00" timeLoss="28.44" rerouteNo="0" devices="tripinfo_83" vType="type1" speedFactor="1.17" vaporized=""/>
    <tripinfo id="16" depart="104.00" departLane="intersectionSW___intersectionS_0" departPos="5.10" departSpeed="0.00" departDelay="0.00" arrival="327.00" arrivalLane="intersectionCenter___intersectionS_0" arrivalPos="292.00" arrivalSpeed="13.45" duration="223.00" routeLength="1511.87" waitingTime="93.00" waitingCount="2" stopTime="0.00" timeLoss="112.46" rerouteNo="0" devices="tripinfo_16" vType="type1" speedFactor="0.99" vaporized=""/>
    <tripinfo id="48" depart="189.00" departLane="intersectionNW___intersectionN_0" departPos="5.10" departSpeed="0.00" departDelay="0.00" arrival="328.00" arrivalLane="intersectionS___southMiddle_0" arrivalPos="292.00" arrivalSpeed="12.32" duration="139.00" routeLength="1200.73" waitingTime="27.00" waitingCount="3" stopTime="0.00" timeLoss="47.16" rerouteNo="0" devices="tripinfo_48" vType="type1" speedFactor="0.94" vaporized=""/>
    <tripinfo id="110" depart="284.00" departLane="intersectionCenter___intersectionS_0" departPos="5.10" departSpeed="0.00" departDelay="0.00" arrival="334.00" arrivalLane="intersectionS___intersectionSE_0" arrivalPos="292.00" arrivalSpeed="11.28" duration="50.00" routeLength="593.09" waitingTime="0.00" waitingCount="0" stopTime="0.00" timeLoss="6.16" rerouteNo="0" devices="tripinfo_110" vType="type1" speedFactor="0.98" vaporized=""/>
    <tripinfo id="47" depart="188.00" departLane="intersectionNE___intersectionE_0" departPos="5.10" departSpeed="0.00" departDelay="0.00" arrival="344.00" arrivalLane="intersectionNW___northLeft_0" arrivalPos="292.00" arrivalSpeed="13.61" duration="156.00" routeLength="1501.76" waitingTime="42.00" waitingCount="3" stopTime="0.00" timeLoss="61.04" rerouteNo="0" devices="tripinfo_47" vType="type1" speedFactor="1.15" vaporized=""/>
    <tripinfo id="31" depart="148.00" departLane="intersectionW___intersectionNW_0" departPos="5.10" departSpeed="0.00" departDelay="0.00" arrival="350.00" arrivalLane="intersectionSE___intersectionE_0" arrivalPos="292.00" arrivalSpeed="7.21" duration="202.00" routeLength="1807.74" waitingTime="40.00" waitingCount="4" stopTime="0.00" timeLoss="89.15" rerouteNo="0" devices="tripinfo_31" vType="type1" speedFactor="1.16" vaporized=""/>
    <tripinfo id="29" depart="145.00" departLane="northLeft___intersectionNW_0" departPos="5.10" departSpeed="0.00" departDelay="0.00" arrival="351.00" arrivalLane="intersectionSE___eastBottom_0" arrivalPos="292.00" arrivalSpeed="13.54" duration="206.00" routeLength="1818.69" waitingTime="41.00" waitingCount="3" stopTime="0.00" timeLoss="72.40" rerouteNo="0" devices="tripinfo_29" vType="type1" speedFactor="0.99" vaporized=""/>
    <tripinfo id="22" depart="119.00" departLane="intersectionE___intersectionNE_0" departPos="5.10" departSpeed="0.00" departDelay="0.00" arrival="352.00" arrivalLane="intersectionSE___eastBottom_0" arrivalPos="292.00" arrivalSpeed="15.97" duration="233.00" routeLength="1818.27" waitingTime="83.00" waitingCount="3" stopTime="0.00" timeLoss="120.25" rerouteNo="0" devices="tripinfo_22" vType="type1" speedFactor="1.16" vaporized=""/>
    <tripinfo id="112" depart="286.00" departLane="intersectionNW___intersectionN_0" departPos="7.10" departSpeed="0.00" departDelay="0.00" arrival="355.00" arrivalLane="intersectionN___northMiddle_0" arrivalPos="292.00" arrivalSpeed="11.88" duration="69.00" routeLength="591.09" waitingTime="15.00" waitingCount="1" stopTime="0.00" timeLoss="26.15" rerouteNo="0" devices="tripinfo_112" vType="type2" speedFactor="1.00" vaporized=""/>
    <tripinfo id="105" depart="279.00" departLane="westMiddle___intersectionW_0" departPos="5.10" departSpeed="0.00" departDelay="0.00" arrival="358.00" arrivalLane="intersectionNW___northLeft_0" arrivalPos="292.00" arrivalSpeed="13.94" duration="79.00" routeLength="899.49" waitingTime="2.00" waitingCount="1" stopTime="0.00" timeLoss="19.51" rerouteNo="0" devices="tripinfo_105" vType="type1" speedFactor="1.09" vaporized=""/>
    <tripinfo id="86" depart="260.00" departLane="southLeft___intersectionSW_0" departPos="5.10" departSpeed="0.00" departDelay="0.00" arrival="364.00" arrivalLane="intersectionS___intersectionSE_0" arrivalPos="292.00" arrivalSpeed="7.43" duration="104.00" routeLength="894.33" waitingTime="31.00" waitingCount="2" stopTime="0.00" timeLoss="45.19" rerouteNo="0" devices="tripinfo_86" vType="type1" speedFactor="1.10" vaporized=""/>
    <tripinfo id="20" depart="115.00" departLane="intersectionN___intersectionNW_0" departPos="5.10" departSpeed="0.00" departDelay="1.00" arrival="365.00" arrivalLane="intersectionNE___intersectionN_0" arrivalPos="292.00" arrivalSpeed="6.29" duration="250.00" routeLength="1818.06" waitingTime="84.00" waitingCount="7" stopTime="0.00" timeLoss="127.34" rerouteNo="0" devices="tripinfo_20" vType="type1" speedFactor="1.07" vaporized=""/>
    <tripinfo id="26" depart="126.00" departLane="intersectionN___intersectionNE_0" departPos="5.10" departSpeed="0.00" departDelay="0.00" arrival="368.00" arrivalLane="intersectionSW___westBottom_0" arrivalPos="292.00" arrivalSpeed="13.14" duration="242.00" routeLength="1808.16" waitingTime="91.00" waitingCount="1" stopTime="0.00" timeLoss="108.99" rerouteNo="0" devices="tripinfo_26" vType="type1" speedFactor="0.99" vaporized=""/>
    <tripinfo id="100" depart="276.00" departLane="intersectionCenter___intersectionE_0" departPos="5.10" departSpeed="0.00" departDelay="0.00" arrival="369.00" arrivalLane="intersectionSE___southRight_0" arrivalPos="292.00" arrivalSpeed="13.31" duration="93.00" routeLength="894.33" waitingTime="8.00" waitingCount="3" stopTime="0.00" timeLoss="25.97" rerouteNo="0" devices="tripinfo_100" vType="type1" speedFactor="0.96" vaporized=""/>
    <tripinfo id="117" depart="293.00" departLane="northRight___intersectionNE_0" departPos="5.10" departSpeed="0.00" departDelay="0.00" arrival="372.00" arrivalLane="intersectionE___intersectionSE_0" arrivalPos="292.00" arrivalSpeed="10.58" duration="79.00" routeLength="899.70" waitingTime="0.00" waitingCount="0" stopTime="0.00" timeLoss="9.81" rerouteNo="0" devices="tripinfo_117" vType="type1" speedFactor="0.94" vaporized=""/>
    <tripinfo id="82" depart="256.00" departLane="intersectionCenter___intersectionW_0" departPos="5.10" departSpeed="0.00" departDelay="0.00" arrival="373.00" arrivalLane="intersectionSW___westBottom_0" arrivalPos="292.00" arrivalSpeed="13.15" duration="117.00" routeLength="894.12" waitingTime="33.00" waitingCount="3" stopTime="0.00" timeLoss="51.77" rerouteNo="0" devices="tripinfo_82" vType="type1" speedFactor="0.99" vaporized=""/>
    <tripinfo id="44" depart="185.00" departLane="eastTop___intersectionNE_0" departPos="5.10" departSpeed="0.00" departDelay="0.00" arrival="377.00" arrivalLane="intersectionN___intersectionCenter_0" arrivalPos="292.00" arrivalSpeed="6.57" duration="192.00" routeLength="899.49" waitingTime="97.00" waitingCount="4" stopTime="0.00" timeLoss="122.95" rerouteNo="0" devices="tripinfo_44" vType="type1" speedFactor="0.94" vaporized=""/>
    <tripinfo id="122" depart="301.00" departLane="intersectionNW___intersectionN_0" departPos="5.10" departSpeed="0.00" departDelay="0.00" arrival="379.00" arrivalLane="intersectionN___intersectionCenter_0" arrivalPos="292.00" arrivalSpeed="10.71" duration="78.00" routeLength="587.93" waitingTime="18.00" waitingCount="2" stopTime="0.00" timeLoss="39.57" rerouteNo="0" devices="tripinfo_122" vType="type1" speedFactor="1.11" vaporized=""/>
    <tripinfo id="41" depart="178.00" departLane="eastTop___intersectionNE_0" departPos="5.10" departSpeed="0.00" departDelay="0.00" arrival="381.00" arrivalLane="intersectionSW___westBottom_0" arrivalPos="292.00" arrivalSpeed="13.64" duration="203.00" routeLength="1813.32" waitingTime="51.00" waitingCount="2" stopTime="0.00" timeLoss="84.33" rerouteNo="0" devices="tripinfo_41" vType="type1" speedFactor="1.10" vaporized=""/>
    <tripinfo id="77" depart="249.00" departLane="intersectionSW___intersectionS_0" departPos="5.10" departSpeed="0.00" departDelay="0.00" arrival="381.00" arrivalLane="intersectionE___intersectionCenter_0" arrivalPos="292.00" arrivalSpeed="10.86" duration="132.00" routeLength="1205.68" waitingTime="16.00" waitingCount="2" stopTime="0.00" timeLoss="39.87" rerouteNo="0" devices="tripinfo_77" vType="type1" speedFactor="0.94" vaporized=""/>
    <tripinfo id="21" depart="117.00" departLane="northMiddle___intersectionN_0" departPos="5.10" departSpeed="0.00" departDelay="0.00" arrival="384.00" arrivalLane="intersectionSW___intersectionW_0" arrivalPos="292.00" arrivalSpeed="7.78" duration="267.00" routeLength="1501.76" waitingTime="117.00" waitingCount="5" stopTime="0.00" timeLoss="145.11" rerouteNo="0" devices="tripinfo_21" vType="type1" speedFactor="0.89" vaporized=""/>
    <tripinfo id="33" depart="152.00" departLane="southLeft___intersectionSW_0" departPos="5.10" departSpeed="0.00" departDelay="0.00" arrival="386.00" arrivalLane="intersectionW___intersectionSW_0" arrivalPos="292.00" arrivalSpeed="13.56" duration="234.00" routeLength="1506.50" waitingTime="88.00" waitingCount="8" stopTime="0.00" timeLoss="131.07" rerouteNo="0" devices="tripinfo_33" vType="type1" speedFactor="1.06" vaporized=""/>