<?xml version="1.0" encoding="UTF-8"?>

<!-- generated on 2024-03-20 08:13:52 by Eclipse SUMO libsumo Version 1.19.0
<configuration xmlns:xsi="http://www.w3.org/2001/XMLSchema-instance" xsi:noNamespaceSchemaLocation="http://sumo.dlr.de/xsd/libsumoConfiguration.xsd">

    <input>
        <net-file value="./nets/3x3/network.net.xml"/>
        <route-files value="./nets/3x3/generated_route.rou.xml"/>
    </input>

    <output>
        <queue-output value="./DDQN/runs/3x3/run_10/QueueInfo/episode_4"/>
        <summary-output value="./DDQN/runs/3x3/run_10/Summary/episode_4"/>
        <tripinfo-output value="./DDQN/runs/3x3/run_10/VehicleInfo/episode_4"/>
    </output>

    <processing>
        <waiting-time-memory value="10000"/>
    </processing>

    <report>
        <no-warnings value="true"/>
        <log value="./nets/3x3/sumo_log.txt"/>
        <no-step-log value="true"/>
    </report>

    <emissions>
        <phemlight-path value="./nets/3x3/./PHEMlight/"/>
    </emissions>

    <random_number>
        <random value="true"/>
    </random_number>

</configuration>
-->

<tripinfos xmlns:xsi="http://www.w3.org/2001/XMLSchema-instance" xsi:noNamespaceSchemaLocation="http://sumo.dlr.de/xsd/tripinfo_file.xsd">
    <tripinfo id="0" depart="33.00" departLane="intersectionE___intersectionNE_0" departPos="5.10" departSpeed="0.00" departDelay="0.00" arrival="118.00" arrivalLane="intersectionN___northMiddle_0" arrivalPos="292.00" arrivalSpeed="12.22" duration="85.00" routeLength="894.12" waitingTime="0.00" waitingCount="0" stopTime="0.00" timeLoss="12.50" rerouteNo="0" devices="tripinfo_0" vType="type1" speedFactor="0.90" vaporized=""/>
    <tripinfo id="5" depart="81.00" departLane="westTop___intersectionNW_0" departPos="5.10" departSpeed="0.00" departDelay="0.00" arrival="154.00" arrivalLane="intersectionN___intersectionCenter_0" arrivalPos="292.00" arrivalSpeed="14.91" duration="73.00" routeLength="894.33" waitingTime="1.00" waitingCount="1" stopTime="0.00" timeLoss="14.23" rerouteNo="0" devices="tripinfo_5" vType="type1" speedFactor="1.11" vaporized=""/>
    <tripinfo id="10" depart="103.00" departLane="intersectionW___intersectionCenter_0" departPos="5.10" departSpeed="0.00" departDelay="0.00" arrival="156.00" arrivalLane="intersectionCenter___intersectionS_0" arrivalPos="292.00" arrivalSpeed="13.78" duration="53.00" routeLength="587.93" waitingTime="1.00" waitingCount="1" stopTime="0.00" timeLoss="10.44" rerouteNo="0" devices="tripinfo_10" vType="type1" speedFactor="1.01" vaporized=""/>
    <tripinfo id="15" depart="138.00" departLane="intersectionW___intersectionNW_0" departPos="5.10" departSpeed="0.00" departDelay="0.00" arrival="167.00" arrivalLane="intersectionW___intersectionNW_0" arrivalPos="292.00" arrivalSpeed="7.25" duration="29.00" routeLength="286.90" waitingTime="1.00" waitingCount="1" stopTime="0.00" timeLoss="8.35" rerouteNo="0" devices="tripinfo_15" vType="type1" speedFactor="1.00" vaporized=""/>
    <tripinfo id="3" depart="72.00" departLane="eastBottom___intersectionSE_0" departPos="7.10" departSpeed="0.00" departDelay="0.00" arrival="171.00" arrivalLane="intersectionS___intersectionSW_0" arrivalPos="292.00" arrivalSpeed="12.03" duration="99.00" routeLength="897.70" waitingTime="24.00" waitingCount="1" stopTime="0.00" timeLoss="33.85" rerouteNo="0" devices="tripinfo_3" vType="type2" speedFactor="1.00" vaporized=""/>
    <tripinfo id="12" depart="108.00" departLane="intersectionNE___intersectionE_0" departPos="5.10" departSpeed="0.00" departDelay="0.00" arrival="187.00" arrivalLane="intersectionCenter___intersectionN_0" arrivalPos="292.00" arrivalSpeed="6.13" duration="79.00" routeLength="888.96" waitingTime="4.00" waitingCount="2" stopTime="0.00" timeLoss="17.70" rerouteNo="0" devices="tripinfo_12" vType="type1" speedFactor="1.05" vaporized=""/>
    <tripinfo id="9" depart="101.00" departLane="intersectionSE___intersectionS_0" departPos="7.10" departSpeed="0.00" departDelay="3.00" arrival="192.00" arrivalLane="intersectionSW___southLeft_0" arrivalPos="292.00" arrivalSpeed="13.85" duration="91.00" routeLength="897.49" waitingTime="11.00" waitingCount="1" stopTime="0.00" timeLoss="25.93" rerouteNo="0" devices="tripinfo_9" vType="type2" speedFactor="1.00" vaporized=""/>
    <tripinfo id="1" depart="44.00" departLane="intersectionNW___intersectionW_0" departPos="7.10" departSpeed="0.00" departDelay="0.00" arrival="199.00" arrivalLane="intersectionSE___intersectionE_0" arrivalPos="292.00" arrivalSpeed="13.49" duration="155.00" routeLength="1510.08" waitingTime="25.00" waitingCount="2" stopTime="0.00" timeLoss="45.36" rerouteNo="0" devices="tripinfo_1" vType="type2" speedFactor="1.00" vaporized=""/>
    <tripinfo id="29" depart="170.00" departLane="southRight___intersectionSE_0" departPos="5.10" departSpeed="0.00" departDelay="0.00" arrival="217.00" arrivalLane="intersectionSE___eastBottom_0" arrivalPos="292.00" arrivalSpeed="13.28" duration="47.00" routeLength="587.93" waitingTime="0.00" waitingCount="0" stopTime="0.00" timeLoss="6.08" rerouteNo="0" devices="tripinfo_29" vType="type1" speedFactor="1.06" vaporized=""/>
    <tripinfo id="6" depart="91.00" departLane="southLeft___intersectionSW_0" departPos="5.10" departSpeed="0.00" departDelay="0.00" arrival="225.00" arrivalLane="intersectionN___intersectionNE_0" arrivalPos="292.00" arrivalSpeed="12.16" duration="134.00" routeLength="1507.13" waitingTime="5.00" waitingCount="2" stopTime="0.00" timeLoss="28.89" rerouteNo="0" devices="tripinfo_6" vType="type1" speedFactor="1.04" vaporized=""/>
    <tripinfo id="26" depart="164.00" departLane="southLeft___intersectionSW_0" departPos="5.10" departSpeed="0.00" departDelay="0.00" arrival="232.00" arrivalLane="intersectionW___westMiddle_0" arrivalPos="292.00" arrivalSpeed="13.73" duration="68.00" routeLength="899.49" waitingTime="0.00" waitingCount="0" stopTime="0.00" timeLoss="8.12" rerouteNo="0" devices="tripinfo_26" vType="type1" speedFactor="1.09" vaporized=""/>
    <tripinfo id="2" depart="55.00" departLane="intersectionS___intersectionSE_0" departPos="5.10" departSpeed="0.00" departDelay="0.00" arrival="234.00" arrivalLane="intersectionCenter___intersectionS_0" arrivalPos="292.00" arrivalSpeed="13.06" duration="179.00" routeLength="1205.47" waitingTime="68.00" waitingCount="2" stopTime="0.00" timeLoss="86.91" rerouteNo="0" devices="tripinfo_2" vType="type1" speedFactor="0.95" vaporized=""/>
    <tripinfo id="49" depart="214.00" departLane="intersectionN___intersectionNW_0" departPos="7.10" departSpeed="0.00" departDelay="0.00" arrival="238.00" arrivalLane="intersectionN___intersectionNW_0" arrivalPos="292.00" arrivalSpeed="12.27" duration="24.00" routeLength="284.90" waitingTime="0.00" waitingCount="0" stopTime="0.00" timeLoss="3.39" rerouteNo="0" devices="tripinfo_49" vType="type2" speedFactor="1.00" vaporized=""/>
    <tripinfo id="32" depart="177.00" departLane="intersectionNE___intersectionE_0" departPos="5.10" departSpeed="0.00" departDelay="0.00" arrival="250.00" arrivalLane="intersectionCenter___intersectionS_0" arrivalPos="292.00" arrivalSpeed="5.98" duration="73.00" routeLength="894.12" waitingTime="0.00" waitingCount="0" stopTime="0.00" timeLoss="15.97" rerouteNo="0" devices="tripinfo_32" vType="type1" speedFactor="1.13" vaporized=""/>
    <tripinfo id="8" depart="98.00" departLane="intersectionS___intersectionSE_0" departPos="5.10" departSpeed="0.00" departDelay="0.00" arrival="259.00" arrivalLane="intersectionS___southMiddle_0" arrivalPos="292.00" arrivalSpeed="14.29" duration="161.00" routeLength="1511.87" waitingTime="27.00" waitingCount="1" stopTime="0.00" timeLoss="56.15" rerouteNo="0" devices="tripinfo_8" vType="type1" speedFactor="1.04" vaporized=""/>
    <tripinfo id="21" depart="152.00" departLane="intersectionS___intersectionSE_0" departPos="5.10" departSpeed="0.00" departDelay="0.00" arrival="265.00" arrivalLane="intersectionNE___intersectionN_0" arrivalPos="292.00" arrivalSpeed="14.90" duration="113.00" routeLength="1205.68" waitingTime="19.00" waitingCount="1" stopTime="0.00" timeLoss="37.08" rerouteNo="0" devices="tripinfo_21" vType="type1" speedFactor="1.15" vaporized=""/>
    <tripinfo id="7" depart="95.00" departLane="intersectionS___intersectionSW_0" departPos="5.10" departSpeed="0.00" departDelay="0.00" arrival="267.00" arrivalLane="intersectionE___intersectionCenter_0" arrivalPos="292.00" arrivalSpeed="14.19" duration="172.00" routeLength="2103.82" waitingTime="2.00" waitingCount="2" stopTime="0.00" timeLoss="26.49" rerouteNo="0" devices="tripinfo_7" vType="type1" speedFactor="1.05" vaporized=""/>
    <tripinfo id="33" depart="177.00" departLane="southLeft___intersectionSW_0" departPos="5.10" departSpeed="0.00" departDelay="0.00" arrival="268.00" arrivalLane="intersectionW___westMiddle_0" arrivalPos="292.00" arrivalSpeed="10.95" duration="91.00" routeLength="899.49" waitingTime="10.00" waitingCount="1" stopTime="0.00" timeLoss="23.52" rerouteNo="0" devices="tripinfo_33" vType="type1" speedFactor="0.96" vaporized=""/>
    <tripinfo id="19" depart="148.00" departLane="intersectionCenter___intersectionN_0" departPos="5.10" departSpeed="0.00" departDelay="0.00" arrival="270.00" arrivalLane="intersectionE___intersectionSE_0" arrivalPos="292.00" arrivalSpeed="10.39" duration="122.00" routeLength="1195.36" waitingTime="6.00" waitingCount="1" stopTime="0.00" timeLoss="22.53" rerouteNo="0" devices="tripinfo_19" vType="type1" speedFactor="0.87" vaporized=""/>
    <tripinfo id="54" depart="225.00" departLane="intersectionE___intersectionNE_0" departPos="5.10" departSpeed="0.00" departDelay="0.00" arrival="275.00" arrivalLane="intersectionNE___intersectionN_0" arrivalPos="292.00" arrivalSpeed="11.83" duration="50.00" routeLength="593.09" waitingTime="0.00" waitingCount="0" stopTime="0.00" timeLoss="6.09" rerouteNo="0" devices="tripinfo_54" vType="type1" speedFactor="0.99" vaporized=""/>
    <tripinfo id="38" depart="184.00" departLane="intersectionS___intersectionSE_0" departPos="7.10" departSpeed="0.00" departDelay="0.00" arrival="281.00" arrivalLane="intersectionCenter___intersectionN_0" arrivalPos="292.00" arrivalSpeed="13.16" duration="97.00" routeLength="1198.31" waitingTime="0.00" waitingCount="0" stopTime="0.00" timeLoss="10.04" rerouteNo="0" devices="tripinfo_38" vType="type2" speedFactor="1.00" vaporized=""/>
    <tripinfo id="58" depart="238.00" departLane="eastBottom___intersectionSE_0" departPos="5.10" departSpeed="0.00" departDelay="0.00" arrival="287.00" arrivalLane="intersectionSE___intersectionS_0" arrivalPos="292.00" arrivalSpeed="12.93" duration="49.00" routeLength="593.30" waitingTime="0.00" waitingCount="0" stopTime="0.00" timeLoss="5.77" rerouteNo="0" devices="tripinfo_58" vType="type1" speedFactor="1.01" vaporized=""/>
    <tripinfo id="39" depart="187.00" departLane="intersectionW___intersectionNW_0" departPos="7.10" departSpeed="0.00" departDelay="0.00" arrival="294.00" arrivalLane="intersectionNE___northRight_0" arrivalPos="292.00" arrivalSpeed="12.09" duration="107.00" routeLength="1198.52" waitingTime="5.00" waitingCount="1" stopTime="0.00" timeLoss="20.36" rerouteNo="0" devices="tripinfo_39" vType="type2" speedFactor="1.00" vaporized=""/>
    <tripinfo id="43" depart="193.00" departLane="intersectionS___intersectionCenter_0" departPos="5.10" departSpeed="0.00" departDelay="0.00" arrival="295.00" arrivalLane="intersectionCenter___intersectionN_0" arrivalPos="292.00" arrivalSpeed="9.48" duration="102.00" routeLength="593.30" waitingTime="49.00" waitingCount="1" stopTime="0.00" timeLoss="60.54" rerouteNo="0" devices="tripinfo_43" vType="type1" speedFactor="1.04" vaporized=""/>
    <tripinfo id="11" depart="106.00" departLane="northLeft___intersectionNW_0" departPos="5.10" departSpeed="0.00" departDelay="0.00" arrival="299.00" arrivalLane="intersectionSE___intersectionE_0" arrivalPos="292.00" arrivalSpeed="10.52" duration="193.00" routeLength="1818.48" waitingTime="39.00" waitingCount="2" stopTime="0.00" timeLoss="69.51" rerouteNo="0" devices="tripinfo_11" vType="type1" speedFactor="1.06" vaporized=""/>
    <tripinfo id="37" depart="183.00" departLane="southMiddle___intersectionS_0" departPos="5.10" departSpeed="0.00" departDelay="0.00" arrival="299.00" arrivalLane="intersectionCenter___intersectionN_0" arrivalPos="292.00" arrivalSpeed="12.03" duration="116.00" routeLength="899.70" waitingTime="32.00" waitingCount="1" stopTime="0.00" timeLoss="63.07" rerouteNo="0" devices="tripinfo_37" vType="type1" speedFactor="1.23" vaporized=""/>
    <tripinfo id="18" depart="146.00" departLane="southMiddle___intersectionS_0" departPos="5.10" departSpeed="0.00" departDelay="0.00" arrival="302.00" arrivalLane="intersectionCenter___intersectionW_0" arrivalPos="292.00" arrivalSpeed="9.42" duration="156.00" routeLength="899.49" waitingTime="62.00" waitingCount="2" stopTime="0.00" timeLoss="79.53" rerouteNo="0" devices="tripinfo_18" vType="type1" speedFactor="0.85" vaporized=""/>
    <tripinfo id="34" depart="177.00" departLane="intersectionCenter___intersectionE_0" departPos="5.10" departSpeed="0.00" departDelay="0.00" arrival="304.00" arrivalLane="intersectionS___intersectionCenter_0" arrivalPos="292.00" arrivalSpeed="6.55" duration="127.00" routeLength="1189.99" waitingTime="30.00" waitingCount="3" stopTime="0.00" timeLoss="55.37" rerouteNo="0" devices="tripinfo_34" vType="type1" speedFactor="1.20" vaporized=""/>
    <tripinfo id="27" depart="165.00" departLane="intersectionW___intersectionCenter_0" departPos="5.10" departSpeed="0.00" departDelay="0.00" arrival="308.00" arrivalLane="intersectionE___intersectionCenter_0" arrivalPos="292.00" arrivalSpeed="13.22" duration="143.00" routeLength="1496.18" waitingTime="10.00" waitingCount="3" stopTime="0.00" timeLoss="32.66" rerouteNo="0" devices="tripinfo_27" vType="type1" speedFactor="0.98" vaporized=""/>
    <tripinfo id="30" depart="171.00" departLane="intersectionW___intersectionNW_0" departPos="5.10" departSpeed="0.00" departDelay="0.00" arrival="314.00" arrivalLane="intersectionE___intersectionSE_0" arrivalPos="292.00" arrivalSpeed="14.46" duration="143.00" routeLength="1501.76" waitingTime="17.00" waitingCount="2" stopTime="0.00" timeLoss="42.81" rerouteNo="0" devices="tripinfo_30" vType="type1" speedFactor="1.09" vaporized=""/>
    <tripinfo id="13" depart="119.00" departLane="southMiddle___intersectionS_0" departPos="7.10" departSpeed="0.00" departDelay="0.00" arrival="320.00" arrivalLane="intersectionN___intersectionNE_0" arrivalPos="292.00" arrivalSpeed="11.56" duration="201.00" routeLength="1198.73" waitingTime="95.00" waitingCount="2" stopTime="0.00" timeLoss="114.63" rerouteNo="0" devices="tripinfo_13" vType="type2" speedFactor="1.00" vaporized=""/>
    <tripinfo id="4" depart="78.00" departLane="intersectionE___intersectionSE_0" departPos="5.10" departSpeed="0.00" departDelay="0.00" arrival="326.00" arrivalLane="intersectionNE___eastTop_0" arrivalPos="292.00" arrivalSpeed="15.09" duration="248.00" routeLength="1802.79" waitingTime="116.00" waitingCount="2" stopTime="0.00" timeLoss="137.50" rerouteNo="0" devices="tripinfo_4" vType="type1" speedFactor="1.18" vaporized=""/>
    <tripinfo id="40" depart="189.00" departLane="southMiddle___intersectionS_0" departPos="5.10" departSpeed="0.00" departDelay="0.00" arrival="328.00" arrivalLane="intersectionW___westMiddle_0" arrivalPos="292.00" arrivalSpeed="13.25" duration="139.00" routeLength="1205.89" waitingTime="31.00" waitingCount="1" stopTime="0.00" timeLoss="58.06" rerouteNo="0" devices="tripinfo_40" vType="type1" speedFactor="1.08" vaporized=""/>
    <tripinfo id="25" depart="163.00" departLane="intersectionW___intersectionCenter_0" departPos="5.10" departSpeed="0.00" departDelay="0.00" arrival="331.00" arrivalLane="intersectionW___intersectionNW_0" arrivalPos="292.00" arrivalSpeed="12.38" duration="168.00" routeLength="1496.39" waitingTime="49.00" waitingCount="2" stopTime="0.00" timeLoss="70.72" rerouteNo="0" devices="tripinfo_25" vType="type1" speedFactor="1.12" vaporized=""/>
    <tripinfo id="73" depart="258.00" departLane="northMiddle___intersectionN_0" departPos="5.10" departSpeed="0.00" departDelay="0.00" arrival="332.00" arrivalLane="intersectionNE___eastTop_0" arrivalPos="292.00" arrivalSpeed="12.53" duration="74.00" routeLength="899.49" waitingTime="0.00" waitingCount="0" stopTime="0.00" timeLoss="11.47" rerouteNo="0" devices="tripinfo_73" vType="type1" speedFactor="1.04" vaporized=""/>
    <tripinfo id="31" depart="176.00" departLane="northRight___intersectionNE_0" departPos="5.10" departSpeed="0.00" departDelay="0.00" arrival="334.00" arrivalLane="intersectionSE___eastBottom_0" arrivalPos="292.00" arrivalSpeed="13.49" duration="158.00" routeLength="1205.89" waitingTime="50.00" waitingCount="2" stopTime="0.00" timeLoss="67.75" rerouteNo="0" devices="tripinfo_31" vType="type1" speedFactor="0.97" vaporized=""/>
    <tripinfo id="120" depart="319.00" departLane="intersectionN___intersectionNE_0" departPos="5.10" departSpeed="0.00" departDelay="0.00" arrival="344.00" arrivalLane="intersectionN___intersectionNE_0" arrivalPos="292.00" arrivalSpeed="13.75" duration="25.00" routeLength="286.90" waitingTime="0.00" waitingCount="0" stopTime="0.00" timeLoss="3.91" rerouteNo="0" devices="tripinfo_120" vType="type1" speedFactor="0.99" vaporized=""/>
    <tripinfo id="36" depart="182.00" departLane="intersectionNE___intersectionE_0" departPos="5.10" departSpeed="0.00" departDelay="0.00" arrival="349.00" arrivalLane="intersectionSW___westBottom_0" arrivalPos="292.00" arrivalSpeed="11.67" duration="167.00" routeLength="1507.13" waitingTime="26.00" waitingCount="3" stopTime="0.00" timeLoss="50.49" rerouteNo="0" devices="tripinfo_36" vType="type1" speedFactor="0.93" vaporized=""/>
    <tripinfo id="44" depart="193.00" departLane="intersectionE___intersectionCenter_0" departPos="5.10" departSpeed="0.00" departDelay="0.00" arrival="350.00" arrivalLane="intersectionNW___northLeft_0" arrivalPos="292.00" arrivalSpeed="13.36" duration="157.00" routeLength="1200.73" waitingTime="63.00" waitingCount="1" stopTime="0.00" timeLoss="77.77" rerouteNo="0" devices="tripinfo_44" vType="type1" speedFactor="1.10" vaporized=""/>
    <tripinfo id="20" depart="151.00" departLane="westMiddle___intersectionW_0" departPos="5.10" departSpeed="0.00" departDelay="0.00" arrival="351.00" arrivalLane="intersectionNW___westTop_0" arrivalPos="292.00" arrivalSpeed="11.73" duration="200.00" routeLength="899.28" waitingTime="115.00" waitingCount="3" stopTime="0.00" timeLoss="133.10" rerouteNo="0" devices="tripinfo_20" vType="type1" speedFactor="0.98" vaporized=""/>
    <tripinfo id="104" depart="303.00" departLane="southRight___intersectionSE_0" departPos="7.10" departSpeed="0.00" departDelay="1.00" arrival="357.00" arrivalLane="intersectionSE___eastBottom_0" arrivalPos="292.00" arrivalSpeed="12.48" duration="54.00" routeLength="585.93" waitingTime="0.00" waitingCount="0" stopTime="0.00" timeLoss="11.00" rerouteNo="0" devices="tripinfo_104" vType="type2" speedFactor="1.00" vaporized=""/>
    <tripinfo id="74" depart="258.00" departLane="intersectionCenter___intersectionW_0" departPos="5.10" departSpeed="0.00" departDelay="0.00" arrival="361.00" arrivalLane="intersectionNW___westTop_0" arrivalPos="292.00" arrivalSpeed="11.61" duration="103.00" routeLength="894.12" waitingTime="20.00" waitingCount="1" stopTime="0.00" timeLoss="35.19" rerouteNo="0" devices="tripinfo_74" vType="type1" speedFactor="0.96" vaporized=""/>
    <tripinfo id="88" depart="277.00" departLane="northMiddle___intersectionN_0" departPos="5.10" departSpeed="0.00" departDelay="0.00" arrival="363.00" arrivalLane="intersectionNE___intersectionE_0" arrivalPos="292.00" arrivalSpeed="11.55" duration="86.00" routeLength="894.12" waitingTime="1.00" waitingCount="1" stopTime="0.00" timeLoss="16.31" rerouteNo="0" devices="tripinfo_88" vType="type1" speedFactor="0.92" vaporized=""/>
    <tripinfo id="41" depart="189.00" departLane="intersectionSE___intersectionS_0" departPos="5.10" departSpeed="0.00" departDelay="0.00" arrival="365.00" arrivalLane="intersectionW___westMiddle_0" arrivalPos="292.00" arrivalSpeed="11.85" duration="176.00" routeLength="1200.52" waitingTime="57.00" waitingCount="4" stopTime="0.00" timeLoss="83.35" rerouteNo="0" devices="tripinfo_41" vType="type1" speedFactor="0.93" vaporized=""/>
    <tripinfo id="16" depart="142.00" departLane="intersectionN___intersectionCenter_0" departPos="5.10" departSpeed="0.00" departDelay="0.00" arrival="368.00" arrivalLane="intersectionS___intersectionCenter_0" arrivalPos="292.00" arrivalSpeed="12.31" duration="226.00" routeLength="1496.18" waitingTime="106.00" waitingCount="2" stopTime="0.00" timeLoss="128.00" rerouteNo="0" devices="tripinfo_16" vType="type1" speedFactor="1.10" vaporized=""/>
    <tripinfo id="28" depart="166.00" departLane="southLeft___intersectionSW_0" departPos="5.10" departSpeed="0.00" departDelay="0.00" arrival="369.00" arrivalLane="intersectionW___intersectionSW_0" arrivalPos="292.00" arrivalSpeed="12.29" duration="203.00" routeLength="1506.50" waitingTime="60.00" waitingCount="4" stopTime="0.00" timeLoss="93.59" rerouteNo="0" devices="tripinfo_28" vType="type1" speedFactor="1.00" vaporized=""/>
    <tripinfo id="51" depart="217.00" departLane="intersectionSW___intersectionW_0" departPos="5.10" departSpeed="0.00" departDelay="0.00" arrival="374.00" arrivalLane="intersectionSE___intersectionS_0" arrivalPos="292.00" arrivalSpeed="9.10" duration="157.00" routeLength="1496.39" waitingTime="3.00" waitingCount="1" stopTime="0.00" timeLoss="24.71" rerouteNo="0" devices="tripinfo_51" vType="type1" speedFactor="0.82" vaporized=""/>
    <tripinfo id="110" depart="310.00" departLane="intersectionE___intersectionSE_0" departPos="5.10" departSpeed="0.00" departDelay="0.00" arrival="376.00" arrivalLane="intersectionS___southMiddle_0" arrivalPos="292.00" arrivalSpeed="14.01" duration="66.00" routeLength="894.12" waitingTime="0.00" waitingCount="0" stopTime="0.00" timeLoss="6.85" rerouteNo="0" devices="tripinfo_110" vType="type1" speedFactor="1.10" vaporized=""/>
    <tripinfo id="22" depart="154.00" departLane="intersectionSE___intersectionS_0" departPos="7.10" departSpeed="0.00" departDelay="0.00" arrival="382.00" arrivalLane="intersectionNW___intersectionW_0" arrivalPos="292.00" arrivalSpeed="5.80" duration="228.00" routeLength="1504.71" waitingTime="93.00" waitingCount="3" stopTime="0.00" timeLoss="119.31" rerouteNo="0" devices="tripinfo_22" vType="type2" speedFactor="1.00" vaporized=""/>
    <tripinfo id="53" depart="224.00" departLane="intersectionN___intersectionNE_0" departPos="5.10" departSpeed="0.00" departDelay="2.00" arrival="386.00" arrivalLane="intersectionSW___intersectionW_0" arrivalPos="292.00" arrivalSpeed="14.22" duration="162.00" routeLength="1802.79" waitingTime="5.00" waitingCount="4" stopTime="0.00" timeLoss="34.85" rerouteNo="0" devices="tripinfo_53" vType="type1" speedFactor="1.02" vaporized=""/>
    <tripinfo id="17" depart="143.00" departLane="intersectionN___intersectionNW_0" departPos="5.10" departSpeed="0.00" departDelay="0.00" arrival="389.00" arrivalLane="intersectionW___intersectionNW_0" arrivalPos="292.00" arrivalSpeed="12.65" duration="246.00" routeLength="2108.77" waitingTime="61.00" waitingCount="2" stopTime="0.00" timeLoss="86.76" rerouteNo="0" devices="tripinfo_17" vType="type1" speedFactor="0.95" vaporized=""/>
    <tripinfo id="108" depart="310.00" departLane="intersectionN___intersectionCenter_0" departPos="5.10" departSpeed="0.00" departDelay="0.00" arrival="393.00" arrivalLane="intersectionW___intersectionNW_0" arrivalPos="292.00" arrivalSpeed="11.58" duration="83.00" routeLength="888.96" waitingTime="8.00" waitingCount="3" stopTime="0.00" timeLoss="31.59" rerouteNo="0" devices="tripinfo_108" vType="type1" speedFactor="1.25" vaporized=""/>
    <tripinfo id="165" depart="367.00" departLane="intersectionE___intersectionNE_0" departPos="5.10" departSpeed="0.00" departDelay="0.00" arrival="393.00" arrivalLane="intersectionE___intersectionNE_0" arrivalPos="292.00" arrivalSpeed="11.84" duration="26.00" routeLength="286.90" waitingTime="0.00" waitingCount="0" stopTime="0.00" timeLoss="3.51" rerouteNo="0" devices="tripinfo_165" vType="type1" speedFactor="0.93" vaporized=""/>
    <tripinfo id="42" depart="189.00" departLane="intersectionNE___intersectionN_0" departPos="5.10" departSpeed="0.00" departDelay="0.00" arrival="394.00" arrivalLane="intersectionCenter___intersectionS_0" arrivalPos="292.00" arrivalSpeed="10.07" duration="205.00" routeLength="899.49" waitingTime="115.00" waitingCount="3" stopTime="0.00" timeLoss="145.05" rerouteNo="0" devices="tripinfo_42" vType="type1" speedFactor="1.08" vaporized=""/>
    <tripinfo id="47" depart="211.00" departLane="intersectionNE___intersectionN_0" departPos="5.10" departSpeed="0.00" departDelay="0.00" arrival="394.00" arrivalLane="intersectionW___intersectionSW_0" arrivalPos="292.00" arrivalSpeed="11.91" duration="183.00" routeLength="1205.89" waitingTime="72.00" waitingCount="2" stopTime="0.00" timeLoss="93.79" rerouteNo="0" devices="tripinfo_47" vType="type1" speedFactor="0.98" vaporized=""/>
    <tripinfo id="112" depart="313.00" departLane="intersectionNW___intersectionN_0" departPos="5.10" departSpeed="0.00" departDelay="0.00" arrival="399.00" arrivalLane="intersectionE___intersectionSE_0" arrivalPos="292.00" arrivalSpeed="13.87" duration="86.00" routeLength="1200.73" waitingTime="1.00" waitingCount="1" stopTime="0.00" timeLoss="12.25" rerouteNo="0" devices="tripinfo_112" vType="type1" speedFactor="1.17" vaporized=""/>
    <tripinfo id="60" depart="242.00" departLane="intersectionS___intersectionSE_0" departPos="5.10" departSpeed="0.00" departDelay="0.00" arrival="401.00" arrivalLane="intersectionN___intersectionCenter_0" arrivalPos="292.00" arrivalSpeed="12.85" duration="159.00" routeLength="1511.87" waitingTime="14.00" waitingCount="3" stopTime="0.00" timeLoss="51.50" rerouteNo="0" devices="tripinfo_60" vType="type1" speedFactor="1.02" vaporized=""/>
    <tripinfo id="46" depart="209.00" departLane="eastMiddle___intersectionE_0" departPos="5.10" departSpeed="0.00" departDelay="0.00" arrival="408.00" arrivalLane="intersectionS___southMiddle_0" arrivalPos="292.00" arrivalSpeed="12.39" duration="199.00" routeLength="1205.89" waitingTime="93.00" waitingCount="2" stopTime="0.00" timeLoss="108.94" rerouteNo="0" devices="tripinfo_46" vType="type1" speedFactor="0.97" vaporized=""/>
    <tripinfo id="163" depart="363.00" departLane="eastTop___intersectionNE_0" departPos="5.10" departSpeed="0.00" departDelay="0.00" arrival="410.00" arrivalLane="intersectionNE___northRight_0" arrivalPos="292.00" arrivalSpeed="15.22" duration="47.00" routeLength="587.93" waitingTime="1.00" waitingCount="1" stopTime="0.00" timeLoss="8.76" rerouteNo="0" devices="tripinfo_163" vType="type1" speedFactor="1.13" vaporized=""/>
    <tripinfo id="56" depart="233.00" departLane="intersectionSW___intersectionS_0" departPos="5.10" departSpeed="0.00" departDelay="0.00" arrival="412.00" arrivalLane="intersectionCenter___intersectionE_0" arrivalPos="292.00" arrivalSpeed="5.89" duration="179.00" routeLength="894.12" waitingTime="65.00" waitingCount="5" stopTime="0.00" timeLoss="100.31" rerouteNo="0" devices="tripinfo_56" vType="type1" speedFactor="0.82" vaporized=""/>
    <tripinfo id="77" depart="263.00" departLane="southLeft___intersectionSW_0" departPos="5.10" departSpeed="0.00" departDelay="0.00" arrival="412.00" arrivalLane="intersectionNW___westTop_0" arrivalPos="292.00" arrivalSpeed="15.35" duration="149.00" routeLength="1205.89" waitingTime="58.00" waitingCount="1" stopTime="0.00" timeLoss="74.59" rerouteNo="0" devices="tripinfo_77" vType="type1" speedFactor="1.18" vaporized=""/>
    <tripinfo id="75" depart="259.00" departLane="intersectionW___intersectionNW_0" departPos="5.10" departSpeed="0.00" departDelay="0.00" arrival="413.00" arrivalLane="intersectionCenter___intersectionW_0" arrivalPos="292.00" arrivalSpeed="13.63" duration="154.00" routeLength="1189.99" waitingTime="44.00" waitingCount="1" stopTime="0.00" timeLoss="73.33" rerouteNo="0" devices="tripinfo_75" vType="type1" speedFactor="1.06" vaporized=""/>
    <tripinfo id="85" depart="276.00" departLane="northRight___intersectionNE_0" departPos="5.10" departSpeed="0.00" departDelay="0.00" arrival="415.00" arrivalLane="intersectionSE___southRight_0" arrivalPos="292.00" arrivalSpeed="9.78" duration="139.00" routeLength="1206.10" waitingTime="15.00" waitingCount="1" stopTime="0.00" timeLoss="33.21" rerouteNo="0" devices="tripinfo_85" vType="type1" speedFactor="0.82" vaporized=""/>
    <tripinfo id="14" depart="136.00" departLane="intersectionW___intersectionNW_0" departPos="7.10" departSpeed="0.00" departDelay="0.00" arrival="416.00" arrivalLane="intersectionS___southMiddle_0" arrivalPos="292.00" arrivalSpeed="13.00" duration="280.00" routeLength="1499.76" waitingTime="137.00" waitingCount="4" stopTime="0.00" timeLoss="171.87" rerouteNo="0" devices="tripinfo_14" vType="type2" speedFactor="1.00" vaporized=""/>
    <tripinfo id="59" depart="240.00" departLane="intersectionS___intersectionSE_0" departPos="5.10" departSpeed="0.00" departDelay="0.00" arrival="416.00" arrivalLane="intersectionCenter___intersectionS_0" arrivalPos="292.00" arrivalSpeed="8.82" duration="176.00" routeLength="1205.47" waitingTime="53.00" waitingCount="4" stopTime="0.00" timeLoss="89.96" rerouteNo="0" devices="tripinfo_59" vType="type1" speedFactor="1.02" vaporized=""/>
    <tripinfo id="79" depart="269.00" departLane="intersectionNW___intersectionN_0" departPos="5.10" departSpeed="0.00" departDelay="0.00" arrival="417.00" arrivalLane="intersectionSE___southRight_0" arrivalPos="292.00" arrivalSpeed="13.94" duration="148.00" routeLength="1507.13" waitingTime="29.00" waitingCount="2" stopTime="0.00" timeLoss="51.39" rerouteNo="0" devices="tripinfo_79" vType="type1" speedFactor="1.13" vaporized=""/>