<?xml version="1.0" encoding="UTF-8"?>

<!-- generated on 2024-03-20 08:14:47 by Eclipse SUMO libsumo Version 1.19.0
<configuration xmlns:xsi="http://www.w3.org/2001/XMLSchema-instance" xsi:noNamespaceSchemaLocation="http://sumo.dlr.de/xsd/libsumoConfiguration.xsd">

    <input>
        <net-file value="./nets/3x3/network.net.xml"/>
        <route-files value="./nets/3x3/generated_route.rou.xml"/>
    </input>

    <output>
        <queue-output value="./DDQN/runs/3x3/run_10/QueueInfo/episode_5"/>
        <summary-output value="./DDQN/runs/3x3/run_10/Summary/episode_5"/>
        <tripinfo-output value="./DDQN/runs/3x3/run_10/VehicleInfo/episode_5"/>
    </output>

    <processing>
        <waiting-time-memory value="10000"/>
    </processing>

    <report>
        <no-warnings value="true"/>
        <log value="./nets/3x3/sumo_log.txt"/>
        <no-step-log value="true"/>
    </report>

    <emissions>
        <phemlight-path value="./nets/3x3/./PHEMlight/"/>
    </emissions>

    <random_number>
        <random value="true"/>
    </random_number>

</configuration>
-->

<tripinfos xmlns:xsi="http://www.w3.org/2001/XMLSchema-instance" xsi:noNamespaceSchemaLocation="http://sumo.dlr.de/xsd/tripinfo_file.xsd">
    <tripinfo id="6" depart="66.00" departLane="intersectionCenter___intersectionW_0" departPos="5.10" departSpeed="0.00" departDelay="0.00" arrival="97.00" arrivalLane="intersectionCenter___intersectionW_0" arrivalPos="292.00" arrivalSpeed="10.73" duration="31.00" routeLength="286.90" waitingTime="0.00" waitingCount="0" stopTime="0.00" timeLoss="4.49" rerouteNo="0" devices="tripinfo_6" vType="type1" speedFactor="0.78" vaporized=""/>
    <tripinfo id="7" depart="67.00" departLane="intersectionE___intersectionCenter_0" departPos="5.10" departSpeed="0.00" departDelay="0.00" arrival="147.00" arrivalLane="intersectionW___intersectionNW_0" arrivalPos="292.00" arrivalSpeed="11.62" duration="80.00" routeLength="894.33" waitingTime="0.00" waitingCount="0" stopTime="0.00" timeLoss="8.82" rerouteNo="0" devices="tripinfo_7" vType="type1" speedFactor="0.91" vaporized=""/>
    <tripinfo id="18" depart="124.00" departLane="southRight___intersectionSE_0" departPos="5.10" departSpeed="0.00" departDelay="0.00" arrival="165.00" arrivalLane="intersectionSE___eastBottom_0" arrivalPos="292.00" arrivalSpeed="14.40" duration="41.00" routeLength="587.93" waitingTime="0.00" waitingCount="0" stopTime="0.00" timeLoss="4.75" rerouteNo="0" devices="tripinfo_18" vType="type1" speedFactor="1.17" vaporized=""/>
    <tripinfo id="4" depart="56.00" departLane="northLeft___intersectionNW_0" departPos="5.10" departSpeed="0.00" departDelay="0.00" arrival="186.00" arrivalLane="intersectionE___intersectionSE_0" arrivalPos="292.00" arrivalSpeed="12.98" duration="130.00" routeLength="1506.92" waitingTime="4.00" waitingCount="2" stopTime="0.00" timeLoss="26.44" rerouteNo="0" devices="tripinfo_4" vType="type1" speedFactor="1.05" vaporized=""/>
    <tripinfo id="19" depart="131.00" departLane="southMiddle___intersectionS_0" departPos="5.10" departSpeed="0.00" departDelay="0.00" arrival="187.00" arrivalLane="intersectionS___intersectionSW_0" arrivalPos="292.00" arrivalSpeed="13.42" duration="56.00" routeLength="593.09" waitingTime="5.00" waitingCount="1" stopTime="0.00" timeLoss="12.98" rerouteNo="0" devices="tripinfo_19" vType="type1" speedFactor="1.01" vaporized=""/>
    <tripinfo id="0" depart="25.00" departLane="intersectionE___intersectionNE_0" departPos="5.10" departSpeed="0.00" departDelay="0.00" arrival="189.00" arrivalLane="intersectionCenter___intersectionW_0" arrivalPos="292.00" arrivalSpeed="6.79" duration="164.00" routeLength="1200.31" waitingTime="2.00" waitingCount="2" stopTime="0.00" timeLoss="29.83" rerouteNo="0" devices="tripinfo_0" vType="type1" speedFactor="0.64" vaporized=""/>
    <tripinfo id="39" depart="186.00" departLane="intersectionW___intersectionSW_0" departPos="5.10" departSpeed="0.00" departDelay="0.00" arrival="214.00" arrivalLane="intersectionW___intersectionSW_0" arrivalPos="292.00" arrivalSpeed="9.51" duration="28.00" routeLength="286.90" waitingTime="0.00" waitingCount="0" stopTime="0.00" timeLoss="3.46" rerouteNo="0" devices="tripinfo_39" vType="type1" speedFactor="0.85" vaporized=""/>
    <tripinfo id="15" depart="114.00" departLane="intersectionSE___intersectionE_0" departPos="5.10" departSpeed="0.00" departDelay="0.00" arrival="217.00" arrivalLane="intersectionCenter___intersectionW_0" arrivalPos="292.00" arrivalSpeed="11.79" duration="103.00" routeLength="899.49" waitingTime="19.00" waitingCount="1" stopTime="0.00" timeLoss="34.24" rerouteNo="0" devices="tripinfo_15" vType="type1" speedFactor="0.95" vaporized=""/>
    <tripinfo id="16" depart="118.00" departLane="westBottom___intersectionSW_0" departPos="5.10" departSpeed="0.00" departDelay="0.00" arrival="223.00" arrivalLane="intersectionS___southMiddle_0" arrivalPos="292.00" arrivalSpeed="9.51" duration="105.00" routeLength="894.33" waitingTime="14.00" waitingCount="2" stopTime="0.00" timeLoss="29.83" rerouteNo="0" devices="tripinfo_16" vType="type1" speedFactor="0.86" vaporized=""/>
    <tripinfo id="43" depart="200.00" departLane="intersectionS___intersectionSE_0" departPos="5.10" departSpeed="0.00" departDelay="0.00" arrival="226.00" arrivalLane="intersectionS___intersectionSE_0" arrivalPos="292.00" arrivalSpeed="10.95" duration="26.00" routeLength="286.90" waitingTime="0.00" waitingCount="0" stopTime="0.00" timeLoss="3.31" rerouteNo="0" devices="tripinfo_43" vType="type1" speedFactor="0.94" vaporized=""/>
    <tripinfo id="3" depart="38.00" departLane="westBottom___intersectionSW_0" departPos="5.10" departSpeed="0.00" departDelay="0.00" arrival="229.00" arrivalLane="intersectionS___intersectionCenter_0" arrivalPos="292.00" arrivalSpeed="10.61" duration="191.00" routeLength="899.49" waitingTime="114.00" waitingCount="2" stopTime="0.00" timeLoss="133.69" rerouteNo="0" devices="tripinfo_3" vType="type1" speedFactor="1.14" vaporized=""/>
    <tripinfo id="13" depart="99.00" departLane="intersectionS___intersectionCenter_0" departPos="5.10" departSpeed="0.00" departDelay="0.00" arrival="233.00" arrivalLane="intersectionSW___intersectionS_0" arrivalPos="292.00" arrivalSpeed="13.00" duration="134.00" routeLength="1205.47" waitingTime="32.00" waitingCount="1" stopTime="0.00" timeLoss="44.81" rerouteNo="0" devices="tripinfo_13" vType="type1" speedFactor="0.98" vaporized=""/>
    <tripinfo id="24" depart="155.00" departLane="eastMiddle___intersectionE_0" departPos="5.10" departSpeed="0.00" departDelay="0.00" arrival="238.00" arrivalLane="intersectionSE___intersectionS_0" arrivalPos="292.00" arrivalSpeed="11.86" duration="83.00" routeLength="894.12" waitingTime="1.00" waitingCount="1" stopTime="0.00" timeLoss="14.82" rerouteNo="0" devices="tripinfo_24" vType="type1" speedFactor="0.95" vaporized=""/>
    <tripinfo id="35" depart="179.00" departLane="intersectionE___intersectionNE_0" departPos="5.10" departSpeed="0.00" departDelay="0.00" arrival="245.00" arrivalLane="intersectionNE___northRight_0" arrivalPos="292.00" arrivalSpeed="14.23" duration="66.00" routeLength="593.30" waitingTime="18.00" waitingCount="1" stopTime="0.00" timeLoss="26.60" rerouteNo="0" devices="tripinfo_35" vType="type1" speedFactor="1.10" vaporized=""/>
    <tripinfo id="12" depart="96.00" departLane="southMiddle___intersectionS_0" departPos="5.10" departSpeed="0.00" departDelay="0.00" arrival="249.00" arrivalLane="intersectionCenter___intersectionW_0" arrivalPos="292.00" arrivalSpeed="11.99" duration="153.00" routeLength="899.49" waitingTime="76.00" waitingCount="1" stopTime="0.00" timeLoss="89.78" rerouteNo="0" devices="tripinfo_12" vType="type1" speedFactor="1.03" vaporized=""/>
    <tripinfo id="46" depart="210.00" departLane="intersectionNW___intersectionW_0" departPos="5.10" departSpeed="0.00" departDelay="0.00" arrival="253.00" arrivalLane="intersectionW___intersectionSW_0" arrivalPos="292.00" arrivalSpeed="14.52" duration="43.00" routeLength="593.30" waitingTime="0.00" waitingCount="0" stopTime="0.00" timeLoss="4.40" rerouteNo="0" devices="tripinfo_46" vType="type1" speedFactor="1.11" vaporized=""/>
    <tripinfo id="48" depart="213.00" departLane="eastMiddle___intersectionE_0" departPos="5.10" departSpeed="0.00" departDelay="0.00" arrival="269.00" arrivalLane="intersectionE___intersectionNE_0" arrivalPos="292.00" arrivalSpeed="11.79" duration="56.00" routeLength="587.93" waitingTime="1.00" waitingCount="1" stopTime="0.00" timeLoss="12.52" rerouteNo="0" devices="tripinfo_48" vType="type1" speedFactor="0.99" vaporized=""/>
    <tripinfo id="41" depart="197.00" departLane="westMiddle___intersectionW_0" departPos="5.10" departSpeed="0.00" departDelay="0.00" arrival="279.00" arrivalLane="intersectionSW___westBottom_0" arrivalPos="292.00" arrivalSpeed="13.79" duration="82.00" routeLength="888.96" waitingTime="10.00" waitingCount="1" stopTime="0.00" timeLoss="21.64" rerouteNo="0" devices="tripinfo_41" vType="type1" speedFactor="1.06" vaporized=""/>
    <tripinfo id="45" depart="209.00" departLane="intersectionN___intersectionNE_0" departPos="5.10" departSpeed="0.00" departDelay="0.00" arrival="282.00" arrivalLane="intersectionE___eastMiddle_0" arrivalPos="292.00" arrivalSpeed="13.07" duration="73.00" routeLength="894.12" waitingTime="1.00" waitingCount="1" stopTime="0.00" timeLoss="13.17" rerouteNo="0" devices="tripinfo_45" vType="type1" speedFactor="1.08" vaporized=""/>
    <tripinfo id="53" depart="217.00" departLane="eastMiddle___intersectionE_0" departPos="5.10" departSpeed="0.00" departDelay="0.00" arrival="286.00" arrivalLane="intersectionE___intersectionNE_0" arrivalPos="292.00" arrivalSpeed="11.30" duration="69.00" routeLength="587.93" waitingTime="12.00" waitingCount="1" stopTime="0.00" timeLoss="23.26" rerouteNo="0" devices="tripinfo_53" vType="type1" speedFactor="0.94" vaporized=""/>
    <tripinfo id="25" depart="160.00" departLane="intersectionNE___intersectionE_0" departPos="5.10" departSpeed="0.00" departDelay="0.00" arrival="288.00" arrivalLane="intersectionN___northMiddle_0" arrivalPos="292.00" arrivalSpeed="12.64" duration="128.00" routeLength="1195.36" waitingTime="23.00" waitingCount="2" stopTime="0.00" timeLoss="38.24" rerouteNo="0" devices="tripinfo_25" vType="type1" speedFactor="0.96" vaporized=""/>
    <tripinfo id="57" depart="224.00" departLane="intersectionCenter___intersectionN_0" departPos="5.10" departSpeed="0.00" departDelay="0.00" arrival="290.00" arrivalLane="intersectionN___northMiddle_0" arrivalPos="292.00" arrivalSpeed="15.72" duration="66.00" routeLength="593.30" waitingTime="15.00" waitingCount="1" stopTime="0.00" timeLoss="27.63" rerouteNo="0" devices="tripinfo_57" vType="type1" speedFactor="1.14" vaporized=""/>
    <tripinfo id="1" depart="35.00" departLane="intersectionN___intersectionCenter_0" departPos="5.10" departSpeed="0.00" departDelay="0.00" arrival="293.00" arrivalLane="intersectionE___intersectionCenter_0" arrivalPos="292.00" arrivalSpeed="14.47" duration="258.00" routeLength="1511.87" waitingTime="123.00" waitingCount="5" stopTime="0.00" timeLoss="155.47" rerouteNo="0" devices="tripinfo_1" vType="type1" speedFactor="1.07" vaporized=""/>
    <tripinfo id="47" depart="212.00" departLane="intersectionNE___intersectionN_0" departPos="5.10" departSpeed="0.00" departDelay="0.00" arrival="300.00" arrivalLane="intersectionCenter___intersectionE_0" arrivalPos="292.00" arrivalSpeed="12.48" duration="88.00" routeLength="899.28" waitingTime="2.00" waitingCount="1" stopTime="0.00" timeLoss="24.37" rerouteNo="0" devices="tripinfo_47" vType="type1" speedFactor="1.03" vaporized=""/>
    <tripinfo id="42" depart="203.00" departLane="intersectionN___intersectionCenter_0" departPos="5.10" departSpeed="0.00" departDelay="4.00" arrival="301.00" arrivalLane="intersectionW___intersectionNW_0" arrivalPos="292.00" arrivalSpeed="10.85" duration="98.00" routeLength="888.96" waitingTime="5.00" waitingCount="2" stopTime="0.00" timeLoss="27.16" rerouteNo="0" devices="tripinfo_42" vType="type1" speedFactor="0.91" vaporized=""/>
    <tripinfo id="96" depart="274.00" departLane="intersectionN___intersectionNW_0" departPos="5.10" departSpeed="0.00" departDelay="0.00" arrival="301.00" arrivalLane="intersectionN___intersectionNW_0" arrivalPos="292.00" arrivalSpeed="10.02" duration="27.00" routeLength="286.90" waitingTime="0.00" waitingCount="0" stopTime="0.00" timeLoss="3.22" rerouteNo="0" devices="tripinfo_96" vType="type1" speedFactor="0.90" vaporized=""/>
    <tripinfo id="8" depart="67.00" departLane="northRight___intersectionNE_0" departPos="5.10" departSpeed="0.00" departDelay="0.00" arrival="304.00" arrivalLane="intersectionS___intersectionSE_0" arrivalPos="292.00" arrivalSpeed="6.58" duration="237.00" routeLength="1506.71" waitingTime="91.00" waitingCount="3" stopTime="0.00" timeLoss="131.80" rerouteNo="0" devices="tripinfo_8" vType="type1" speedFactor="1.03" vaporized=""/>
    <tripinfo id="20" depart="139.00" departLane="intersectionSE___intersectionS_0" departPos="5.10" departSpeed="0.00" departDelay="0.00" arrival="305.00" arrivalLane="intersectionNW___northLeft_0" arrivalPos="292.00" arrivalSpeed="13.06" duration="166.00" routeLength="1507.13" waitingTime="35.00" waitingCount="1" stopTime="0.00" timeLoss="50.19" rerouteNo="0" devices="tripinfo_20" vType="type1" speedFactor="0.94" vaporized=""/>
    <tripinfo id="36" depart="181.00" departLane="intersectionCenter___intersectionW_0" departPos="5.10" departSpeed="0.00" departDelay="0.00" arrival="307.00" arrivalLane="intersectionN___intersectionCenter_0" arrivalPos="292.00" arrivalSpeed="12.43" duration="126.00" routeLength="1189.99" waitingTime="16.00" waitingCount="1" stopTime="0.00" timeLoss="30.62" rerouteNo="0" devices="tripinfo_36" vType="type1" speedFactor="0.91" vaporized=""/>
    <tripinfo id="14" depart="103.00" departLane="intersectionSE___intersectionS_0" departPos="5.10" departSpeed="0.00" departDelay="0.00" arrival="312.00" arrivalLane="intersectionE___intersectionNE_0" arrivalPos="292.00" arrivalSpeed="15.25" duration="209.00" routeLength="1195.15" waitingTime="108.00" waitingCount="4" stopTime="0.00" timeLoss="132.50" rerouteNo="0" devices="tripinfo_14" vType="type1" speedFactor="1.13" vaporized=""/>
    <tripinfo id="23" depart="152.00" departLane="northRight___intersectionNE_0" departPos="5.10" departSpeed="0.00" departDelay="0.00" arrival="312.00" arrivalLane="intersectionCenter___intersectionN_0" arrivalPos="292.00" arrivalSpeed="11.01" duration="160.00" routeLength="1195.36" waitingTime="47.00" waitingCount="2" stopTime="0.00" timeLoss="67.04" rerouteNo="0" devices="tripinfo_23" vType="type1" speedFactor="0.93" vaporized=""/>
    <tripinfo id="2" depart="36.00" departLane="eastTop___intersectionNE_0" departPos="5.10" departSpeed="0.00" departDelay="0.00" arrival="315.00" arrivalLane="intersectionNW___northLeft_0" arrivalPos="292.00" arrivalSpeed="12.92" duration="279.00" routeLength="1200.73" waitingTime="169.00" waitingCount="4" stopTime="0.00" timeLoss="193.11" rerouteNo="0" devices="tripinfo_2" vType="type1" speedFactor="1.01" vaporized=""/>
    <tripinfo id="50" depart="213.00" departLane="intersectionNE___intersectionE_0" departPos="5.10" departSpeed="0.00" departDelay="0.00" arrival="316.00" arrivalLane="intersectionCenter___intersectionW_0" arrivalPos="292.00" arrivalSpeed="13.04" duration="103.00" routeLength="894.33" waitingTime="21.00" waitingCount="2" stopTime="0.00" timeLoss="38.92" rerouteNo="0" devices="tripinfo_50" vType="type1" speedFactor="1.02" vaporized=""/>
    <tripinfo id="49" depart="213.00" departLane="northMiddle___intersectionN_0" departPos="5.10" departSpeed="0.00" departDelay="0.00" arrival="318.00" arrivalLane="intersectionNW___intersectionW_0" arrivalPos="292.00" arrivalSpeed="11.55" duration="105.00" routeLength="894.12" waitingTime="18.00" waitingCount="3" stopTime="0.00" timeLoss="38.72" rerouteNo="0" devices="tripinfo_49" vType="type1" speedFactor="0.98" vaporized=""/>
    <tripinfo id="21" depart="145.00" departLane="intersectionS___intersectionCenter_0" departPos="5.10" departSpeed="0.00" departDelay="0.00" arrival="320.00" arrivalLane="intersectionNW___westTop_0" arrivalPos="292.00" arrivalSpeed="13.33" duration="175.00" routeLength="1205.89" waitingTime="63.00" waitingCount="2" stopTime="0.00" timeLoss="85.75" rerouteNo="0" devices="tripinfo_21" vType="type1" speedFactor="0.98" vaporized=""/>
    <tripinfo id="69" depart="244.00" departLane="westTop___intersectionNW_0" departPos="5.10" departSpeed="0.00" departDelay="0.00" arrival="321.00" arrivalLane="intersectionNW___northLeft_0" arrivalPos="292.00" arrivalSpeed="12.15" duration="77.00" routeLength="593.09" waitingTime="20.00" waitingCount="2" stopTime="0.00" timeLoss="34.98" rerouteNo="0" devices="tripinfo_69" vType="type1" speedFactor="1.04" vaporized=""/>
    <tripinfo id="81" depart="259.00" departLane="westMiddle___intersectionW_0" departPos="5.10" departSpeed="0.00" departDelay="2.00" arrival="323.00" arrivalLane="intersectionW___intersectionSW_0" arrivalPos="292.00" arrivalSpeed="10.47" duration="64.00" routeLength="587.93" waitingTime="0.00" waitingCount="0" stopTime="0.00" timeLoss="8.41" rerouteNo="0" devices="tripinfo_81" vType="type1" speedFactor="0.77" vaporized=""/>
    <tripinfo id="52" depart="216.00" departLane="intersectionE___intersectionCenter_0" departPos="5.10" departSpeed="0.00" departDelay="0.00" arrival="324.00" arrivalLane="intersectionCenter___intersectionS_0" arrivalPos="292.00" arrivalSpeed="5.53" duration="108.00" routeLength="593.09" waitingTime="51.00" waitingCount="2" stopTime="0.00" timeLoss="64.37" rerouteNo="0" devices="tripinfo_52" vType="type1" speedFactor="0.98" vaporized=""/>
    <tripinfo id="9" depart="87.00" departLane="northMiddle___intersectionN_0" departPos="5.10" departSpeed="0.00" departDelay="0.00" arrival="325.00" arrivalLane="intersectionE___intersectionNE_0" arrivalPos="292.00" arrivalSpeed="9.87" duration="238.00" routeLength="1205.68" waitingTime="113.00" waitingCount="4" stopTime="0.00" timeLoss="154.88" rerouteNo="0" devices="tripinfo_9" vType="type1" speedFactor="1.05" vaporized=""/>
    <tripinfo id="82" depart="258.00" departLane="intersectionW___intersectionCenter_0" departPos="5.10" departSpeed="0.00" departDelay="0.00" arrival="325.00" arrivalLane="intersectionCenter___intersectionN_0" arrivalPos="292.00" arrivalSpeed="12.99" duration="67.00" routeLength="593.09" waitingTime="7.00" waitingCount="1" stopTime="0.00" timeLoss="25.33" rerouteNo="0" devices="tripinfo_82" vType="type1" speedFactor="1.04" vaporized=""/>
    <tripinfo id="28" depart="166.00" departLane="intersectionN___intersectionCenter_0" departPos="5.10" departSpeed="0.00" departDelay="0.00" arrival="327.00" arrivalLane="intersectionE___intersectionSE_0" arrivalPos="292.00" arrivalSpeed="10.02" duration="161.00" routeLength="894.12" waitingTime="54.00" waitingCount="3" stopTime="0.00" timeLoss="84.23" rerouteNo="0" devices="tripinfo_28" vType="type1" speedFactor="0.84" vaporized=""/>
    <tripinfo id="30" depart="173.00" departLane="intersectionNW___intersectionN_0" departPos="5.10" departSpeed="0.00" departDelay="0.00" arrival="327.00" arrivalLane="intersectionSW___southLeft_0" arrivalPos="292.00" arrivalSpeed="11.68" duration="154.00" routeLength="1501.55" waitingTime="5.00" waitingCount="2" stopTime="0.00" timeLoss="34.13" rerouteNo="0" devices="tripinfo_30" vType="type1" speedFactor="0.91" vaporized=""/>
    <tripinfo id="86" depart="261.00" departLane="intersectionS___intersectionSE_0" departPos="5.10" departSpeed="0.00" departDelay="0.00" arrival="327.00" arrivalLane="intersectionSE___eastBottom_0" arrivalPos="292.00" arrivalSpeed="12.53" duration="66.00" routeLength="593.30" waitingTime="12.00" waitingCount="1" stopTime="0.00" timeLoss="22.26" rerouteNo="0" devices="tripinfo_86" vType="type1" speedFactor="0.99" vaporized=""/>
    <tripinfo id="31" depart="175.00" departLane="intersectionNE___intersectionN_0" departPos="5.10" departSpeed="0.00" departDelay="0.00" arrival="328.00" arrivalLane="intersectionSE___eastBottom_0" arrivalPos="292.00" arrivalSpeed="15.41" duration="153.00" routeLength="1512.08" waitingTime="19.00" waitingCount="3" stopTime="0.00" timeLoss="55.95" rerouteNo="0" devices="tripinfo_31" vType="type1" speedFactor="1.12" vaporized=""/>
    <tripinfo id="5" depart="65.00" departLane="intersectionSW___intersectionS_0" departPos="5.10" departSpeed="0.00" departDelay="0.00" arrival="329.00" arrivalLane="intersectionNE___intersectionE_0" arrivalPos="292.00" arrivalSpeed="12.97" duration="264.00" routeLength="1501.55" waitingTime="123.00" waitingCount="5" stopTime="0.00" timeLoss="167.82" rerouteNo="0" devices="tripinfo_5" vType="type1" speedFactor="1.13" vaporized=""/>
    <tripinfo id="83" depart="259.00" departLane="southRight___intersectionSE_0" departPos="5.10" departSpeed="0.00" departDelay="0.00" arrival="336.00" arrivalLane="intersectionE___eastMiddle_0" arrivalPos="292.00" arrivalSpeed="13.42" duration="77.00" routeLength="894.33" waitingTime="3.00" waitingCount="2" stopTime="0.00" timeLoss="18.95" rerouteNo="0" devices="tripinfo_83" vType="type1" speedFactor="1.12" vaporized=""/>
    <tripinfo id="73" depart="251.00" departLane="intersectionE___intersectionCenter_0" departPos="5.10" departSpeed="0.00" departDelay="0.00" arrival="349.00" arrivalLane="intersectionS___southMiddle_0" arrivalPos="292.00" arrivalSpeed="14.19" duration="98.00" routeLength="899.49" waitingTime="16.00" waitingCount="2" stopTime="0.00" timeLoss="35.55" rerouteNo="0" devices="tripinfo_73" vType="type1" speedFactor="1.04" vaporized=""/>
    <tripinfo id="10" depart="94.00" departLane="intersectionNE___intersectionN_0" departPos="5.10" departSpeed="0.00" departDelay="0.00" arrival="350.00" arrivalLane="intersectionSE___intersectionS_0" arrivalPos="292.00" arrivalSpeed="11.01" duration="256.00" routeLength="1501.34" waitingTime="100.00" waitingCount="5" stopTime="0.00" timeLoss="152.37" rerouteNo="0" devices="tripinfo_10" vType="type1" speedFactor="1.04" vaporized=""/>
    <tripinfo id="98" depart="275.00" departLane="intersectionS___intersectionCenter_0" departPos="5.10" departSpeed="0.00" departDelay="0.00" arrival="352.00" arrivalLane="intersectionN___intersectionNE_0" arrivalPos="292.00" arrivalSpeed="13.63" duration="77.00" routeLength="894.33" waitingTime="2.00" waitingCount="1" stopTime="0.00" timeLoss="16.91" rerouteNo="0" devices="tripinfo_98" vType="type1" speedFactor="1.08" vaporized=""/>
    <tripinfo id="151" depart="333.00" departLane="intersectionS___intersectionSE_0" departPos="5.10" departSpeed="0.00" departDelay="1.00" arrival="356.00" arrivalLane="intersectionS___intersectionSE_0" arrivalPos="292.00" arrivalSpeed="12.39" duration="23.00" routeLength="286.90" waitingTime="0.00" waitingCount="0" stopTime="0.00" timeLoss="3.23" rerouteNo="0" devices="tripinfo_151" vType="type1" speedFactor="1.05" vaporized=""/>
    <tripinfo id="100" depart="284.00" departLane="intersectionCenter___intersectionN_0" departPos="7.10" departSpeed="0.00" departDelay="0.00" arrival="357.00" arrivalLane="intersectionNW___intersectionW_0" arrivalPos="292.00" arrivalSpeed="13.03" duration="73.00" routeLength="897.28" waitingTime="0.00" waitingCount="0" stopTime="0.00" timeLoss="7.63" rerouteNo="0" devices="tripinfo_100" vType="type2" speedFactor="1.00" vaporized=""/>
    <tripinfo id="33" depart="176.00" departLane="eastTop___intersectionNE_0" departPos="5.10" departSpeed="0.00" departDelay="0.00" arrival="365.00" arrivalLane="intersectionNE___eastTop_0" arrivalPos="292.00" arrivalSpeed="15.45" duration="189.00" routeLength="1802.58" waitingTime="44.00" waitingCount="3" stopTime="0.00" timeLoss="78.81" rerouteNo="0" devices="tripinfo_33" vType="type1" speedFactor="1.18" vaporized=""/>
    <tripinfo id="89" depart="268.00" departLane="westBottom___intersectionSW_0" departPos="5.10" departSpeed="0.00" departDelay="0.00" arrival="366.00" arrivalLane="intersectionCenter___intersectionE_0" arrivalPos="292.00" arrivalSpeed="10.48" duration="98.00" routeLength="1200.52" waitingTime="10.00" waitingCount="2" stopTime="0.00" timeLoss="24.78" rerouteNo="0" devices="tripinfo_89" vType="type1" speedFactor="1.18" vaporized=""/>
    <tripinfo id="68" depart="243.00" departLane="westBottom___intersectionSW_0" departPos="5.10" departSpeed="0.00" departDelay="0.00" arrival="371.00" arrivalLane="intersectionSE___eastBottom_0" arrivalPos="292.00" arrivalSpeed="10.54" duration="128.00" routeLength="1206.10" waitingTime="11.00" waitingCount="1" stopTime="0.00" timeLoss="25.94" rerouteNo="0" devices="tripinfo_68" vType="type1" speedFactor="0.85" vaporized=""/>
    <tripinfo id="71" depart="248.00" departLane="northMiddle___intersectionN_0" departPos="5.10" departSpeed="0.00" departDelay="0.00" arrival="372.00" arrivalLane="intersectionSW___southLeft_0" arrivalPos="292.00" arrivalSpeed="14.09" duration="124.00" routeLength="1506.92" waitingTime="7.00" waitingCount="1" stopTime="0.00" timeLoss="23.13" rerouteNo="0" devices="tripinfo_71" vType="type1" speedFactor="1.08" vaporized=""/>
    <tripinfo id="105" depart="291.00" departLane="northMiddle___intersectionN_0" departPos="7.10" departSpeed="0.00" departDelay="0.00" arrival="378.00" arrivalLane="intersectionNE___northRight_0" arrivalPos="292.00" arrivalSpeed="12.72" duration="87.00" routeLength="897.28" waitingTime="8.00" waitingCount="1" stopTime="0.00" timeLoss="21.98" rerouteNo="0" devices="tripinfo_105" vType="type2" speedFactor="1.00" vaporized=""/>
    <tripinfo id="29" depart="172.00" departLane="intersectionS___intersectionSE_0" departPos="5.10" departSpeed="0.00" departDelay="0.00" arrival="384.00" arrivalLane="intersectionNE___intersectionE_0" arrivalPos="292.00" arrivalSpeed="7.87" duration="212.00" routeLength="1802.37" waitingTime="37.00" waitingCount="4" stopTime="0.00" timeLoss="79.04" rerouteNo="0" devices="tripinfo_29" vType="type1" speedFactor="0.98" vaporized=""/>
    <tripinfo id="99" depart="278.00" departLane="southMiddle___intersectionS_0" departPos="5.10" departSpeed="0.00" departDelay="0.00" arrival="384.00" arrivalLane="intersectionSE___intersectionE_0" arrivalPos="292.00" arrivalSpeed="6.30" duration="106.00" routeLength="894.12" waitingTime="24.00" waitingCount="2" stopTime="0.00" timeLoss="40.73" rerouteNo="0" devices="tripinfo_99" vType="type1" speedFactor="0.99" vaporized=""/>
    <tripinfo id="34" depart="177.00" departLane="northLeft___intersectionNW_0" departPos="5.10" departSpeed="0.00" departDelay="0.00" arrival="386.00" arrivalLane="intersectionSE___intersectionS_0" arrivalPos="292.00" arrivalSpeed="6.81" duration="209.00" routeLength="1807.95" waitingTime="38.00" waitingCount="3" stopTime="0.00" timeLoss="63.99" rerouteNo="0" devices="tripinfo_34" vType="type1" speedFactor="0.90" vaporized=""/>
    <tripinfo id="44" depart="206.00" departLane="intersectionNE___intersectionE_0" departPos="5.10" departSpeed="0.00" departDelay="0.00" arrival="387.00" arrivalLane="intersectionE___intersectionNE_0" arrivalPos="292.00" arrivalSpeed="11.47" duration="181.00" routeLength="1802.58" waitingTime="25.00" waitingCount="3" stopTime="0.00" timeLoss="48.22" rerouteNo="0" devices="tripinfo_44" vType="type1" speedFactor="0.98" vaporized=""/>
    <tripinfo id="90" depart="268.00" departLane="southMiddle___intersectionS_0" departPos="5.10" departSpeed="0.00" departDelay="0.00" arrival="389.00" arrivalLane="intersectionE___eastMiddle_0" arrivalPos="292.00" arrivalSpeed="14.02" duration="121.00" routeLength="1200.73" waitingTime="29.00" waitingCount="1" stopTime="0.00" timeLoss="41.74" rerouteNo="0" devices="tripinfo_90" vType="type1" speedFactor="1.10" vaporized=""/>
    <tripinfo id="84" depart="262.00" departLane="westMiddle___intersectionW_0" departPos="5.10" departSpeed="0.00" departDelay="1.00" arrival="391.00" arrivalLane="intersectionSW___intersectionS_0" arrivalPos="292.00" arrivalSpeed="10.22" duration="129.00" routeLength="894.12" waitingTime="35.00" waitingCount="1" stopTime="0.00" timeLoss="53.29" rerouteNo="0" devices="tripinfo_84" vType="type1" speedFactor="0.86" vaporized=""/>
    <tripinfo id="97" depart="275.00" departLane="eastBottom___intersectionSE_0" departPos="5.10" departSpeed="0.00" departDelay="0.00" arrival="392.00" arrivalLane="intersectionCenter___intersectionN_0" arrivalPos="292.00" arrivalSpeed="12.81" duration="117.00" routeLength="1200.73" waitingTime="16.00" waitingCount="2" stopTime="0.00" timeLoss="31.54" rerouteNo="0" devices="tripinfo_97" vType="type1" speedFactor="1.02" vaporized=""/>
    <tripinfo id="37" depart="183.00" departLane="eastMiddle___intersectionE_0" departPos="5.10" departSpeed="0.00" departDelay="0.00" arrival="393.00" arrivalLane="intersectionSW___intersectionW_0" arrivalPos="292.00" arrivalSpeed="12.12" duration="210.00" routeLength="1501.55" waitingTime="69.00" waitingCount="3" stopTime="0.00" timeLoss="95.49" rerouteNo="0" devices="tripinfo_37" vType="type1" speedFactor="0.95" vaporized=""/>
    <tripinfo id="58" depart="228.00" departLane="northLeft___intersectionNW_0" departPos="7.10" departSpeed="0.00" departDelay="0.00" arrival="394.00" arrivalLane="intersectionNW___northLeft_0" arrivalPos="292.00" arrivalSpeed="12.06" duration="166.00" routeLength="1800.58" waitingTime="11.00" waitingCount="3" stopTime="0.00" timeLoss="35.71" rerouteNo="0" devices="tripinfo_58" vType="type2" speedFactor="1.00" vaporized=""/>
    <tripinfo id="139" depart="322.00" departLane="intersectionN___intersectionCenter_0" departPos="5.10" departSpeed="0.00" departDelay="0.00" arrival="398.00" arrivalLane="intersectionW___intersectionNW_0" arrivalPos="292.00" arrivalSpeed="12.94" duration="76.00" routeLength="888.96" waitingTime="0.00" waitingCount="0" stopTime="0.00" timeLoss="7.57" rerouteNo="0" devices="tripinfo_139" vType="type1" speedFactor="0.94" vaporized=""/>